ws2                                     
   1.2448260000000000     
    -0.000000    2.275731    2.275731
     2.275731   -0.000000    2.275731
     2.275731    2.275731    0.000000
   Cl
     1
Direct
  0.500000  0.500000  0.500000

   60   60   60
 0.11138712270E+00 0.11221041386E+00 0.11472926250E+00 0.11908038074E+00 0.12545924939E+00
 0.13408221570E+00 0.14514900710E+00 0.15881685178E+00 0.17518954242E+00 0.19432286000E+00
 0.21623924316E+00 0.24094646031E+00 0.26844942779E+00 0.29875180182E+00 0.33184103444E+00
 0.36766359504E+00 0.40609106118E+00 0.44688915762E+00 0.48969282405E+00 0.53399310308E+00
 0.57912904783E+00 0.62431156413E+00 0.66862571850E+00 0.71109911464E+00 0.75068907797E+00
 0.78637184634E+00 0.81716648090E+00 0.84216253873E+00 0.86060523772E+00 0.87191533108E+00
 0.87573002383E+00 0.87191533108E+00 0.86060523772E+00 0.84216253873E+00 0.81716648090E+00
 0.78637184634E+00 0.75068907797E+00 0.71109911464E+00 0.66862571850E+00 0.62431156413E+00
 0.57912904783E+00 0.53399310308E+00 0.48969282405E+00 0.44688915762E+00 0.40609106118E+00
 0.36766359504E+00 0.33184103444E+00 0.29875180182E+00 0.26844942779E+00 0.24094646031E+00
 0.21623924316E+00 0.19432286000E+00 0.17518954242E+00 0.15881685178E+00 0.14514900710E+00
 0.13408221570E+00 0.12545924939E+00 0.11908038074E+00 0.11472926250E+00 0.11221041386E+00
 0.11221041386E+00 0.11388164641E+00 0.11731792456E+00 0.12268684824E+00 0.13019619074E+00
 0.14005538041E+00 0.15244408634E+00 0.16749366911E+00 0.18528548427E+00 0.20586103278E+00
 0.22923960178E+00 0.25543286421E+00 0.28445184809E+00 0.31629850637E+00 0.35094578690E+00
 0.38830601979E+00 0.42819964329E+00 0.47032567440E+00 0.51424172802E+00 0.55935459984E+00
 0.60493238070E+00 0.65010984935E+00 0.69393754287E+00 0.73538032979E+00 0.77340868373E+00
 0.80699446762E+00 0.83517806776E+00 0.85713281379E+00 0.87217294186E+00 0.87981675758E+00
 0.87981333847E+00 0.87217218995E+00 0.85713260820E+00 0.83517687153E+00 0.80698707583E+00
 0.77340902034E+00 0.73538242977E+00 0.69393457847E+00 0.65011485977E+00 0.60493101495E+00
 0.55935575697E+00 0.51424107475E+00 0.47032639508E+00 0.42820007172E+00 0.38830611233E+00
 0.35094579549E+00 0.31629869703E+00 0.28445174023E+00 0.25543276931E+00 0.22923929527E+00
 0.20586083634E+00 0.18528529978E+00 0.16749370527E+00 0.15244417174E+00 0.14005556952E+00
 0.13019628282E+00 0.12268690580E+00 0.11731785782E+00 0.11388160341E+00 0.11221036166E+00
 0.11472926250E+00 0.11731792456E+00 0.12177506306E+00 0.12828414753E+00 0.13704946901E+00
 0.14826304892E+00 0.16208073624E+00 0.17861377451E+00 0.19793313178E+00 0.22008358618E+00
 0.24509780380E+00 0.27300549975E+00 0.30382925503E+00 0.33756885358E+00 0.37417284205E+00
 0.41350780773E+00 0.45532631803E+00 0.49924402731E+00 0.54472666840E+00 0.59109138688E+00
 0.63751217115E+00 0.68305639263E+00 0.72669627711E+00 0.76738490140E+00 0.80404790189E+00
 0.83567775088E+00 0.86135943817E+00 0.88030098269E+00 0.89191335568E+00 0.89582549505E+00
 0.89191316392E+00 0.88029457467E+00 0.86135242041E+00 0.83567886303E+00 0.80405069094E+00
 0.76738123376E+00 0.72669871719E+00 0.68305728220E+00 0.63751173944E+00 0.59109401604E+00
 0.54472759346E+00 0.49924455013E+00 0.45532551177E+00 0.41350764662E+00 0.37417329685E+00
 0.33756921837E+00 0.30382941220E+00 0.27300540104E+00 0.24509742568E+00 0.22008310885E+00
 0.19793274075E+00 0.17861362992E+00 0.16208085608E+00 0.14826333354E+00 0.13704975120E+00
 0.12828429496E+00 0.12177503974E+00 0.11731780044E+00 0.11472915622E+00 0.11388160341E+00
 0.11908038074E+00 0.12268684824E+00 0.12828414753E+00 0.13605625165E+00 0.14619354069E+00
 0.15886688838E+00 0.17421432752E+00 0.19233974080E+00 0.21332224527E+00 0.23722755438E+00
 0.26411658827E+00 0.29404283192E+00 0.32703918964E+00 0.36309217423E+00 0.40211226409E+00
 0.44390123792E+00 0.48812745241E+00 0.53430783255E+00 0.58180229912E+00 0.62981887035E+00
 0.67744022804E+00 0.72364041684E+00 0.76734373607E+00 0.80743017758E+00 0.84283367517E+00
 0.87254172103E+00 0.89566656505E+00 0.91150767267E+00 0.91955849310E+00 0.91955816152E+00
 0.91150422137E+00 0.89566581030E+00 0.87253526590E+00 0.84282727914E+00 0.80742628390E+00
 0.76734402437E+00 0.72364490484E+00 0.67744081991E+00 0.62982315084E+00 0.58180074329E+00
 0.53430838533E+00 0.48812741329E+00 0.44390222777E+00 0.40211292141E+00 0.36309273078E+00
 0.32703957299E+00 0.29404310091E+00 0.26411626832E+00 0.23722705979E+00 0.21332159479E+00
 0.19233940675E+00 0.17421427137E+00 0.15886721207E+00 0.14619391432E+00 0.13605658204E+00
 0.12828419835E+00 0.12268675276E+00 0.11908017883E+00 0.11731780044E+00 0.11731785782E+00
 0.12545924939E+00 0.13019619074E+00 0.13704946901E+00 0.14619354069E+00 0.15780129739E+00
 0.17202866439E+00 0.18900909061E+00 0.20885835851E+00 0.23168227060E+00 0.25758297367E+00
 0.28665561233E+00 0.31897562137E+00 0.35457411130E+00 0.39340895963E+00 0.43533212001E+00
 0.48006329714E+00 0.52716809861E+00 0.57604891979E+00 0.62594686969E+00 0.67595838888E+00
 0.72505346202E+00 0.77212402470E+00 0.81600462807E+00 0.85555747754E+00 0.88967026114E+00
 0.91735667331E+00 0.93778348867E+00 0.95030179114E+00 0.95451747626E+00 0.95029685235E+00
 0.93777921250E+00 0.91735419330E+00 0.88966853730E+00 0.85555782584E+00 0.81601205722E+00
 0.77212200513E+00 0.72505510163E+00 0.67596084078E+00 0.62594606763E+00 0.57605085438E+00
 0.52716735104E+00 0.48006322508E+00 0.43533156170E+00 0.39340912830E+00 0.35457491403E+00
 0.31897615177E+00 0.28665562509E+00 0.25758258595E+00 0.23168163227E+00 0.20885782175E+00
 0.18900887003E+00 0.17202882757E+00 0.15780169750E+00 0.14619394632E+00 0.13704968243E+00
 0.13019615928E+00 0.12545907110E+00 0.12268675276E+00 0.12177503974E+00 0.12268690580E+00
 0.13408221570E+00 0.14005538041E+00 0.14826304892E+00 0.15886688838E+00 0.17202866439E+00
 0.18790285857E+00 0.20663808731E+00 0.22838123402E+00 0.25328082865E+00 0.28148166844E+00
 0.31311088744E+00 0.34825290146E+00 0.38692023308E+00 0.42902048939E+00 0.47432863659E+00
 0.52246261725E+00 0.57287120304E+00 0.62483034275E+00 0.67745254732E+00 0.72970546471E+00
 0.78045180799E+00 0.82847728713E+00 0.87256085953E+00 0.91148898890E+00 0.94416263345E+00
 0.96960098521E+00 0.98701553343E+00 0.99586735632E+00 0.99586846779E+00 0.98701723595E+00
 0.96959461232E+00 0.94416062989E+00 0.91148927143E+00 0.87255591318E+00 0.82847603619E+00
 0.78045536559E+00 0.72970835838E+00 0.67745181187E+00 0.62483278085E+00 0.57286911096E+00
 0.52246246756E+00 0.47432812967E+00 0.42902152256E+00 0.38692103822E+00 0.34825335448E+00
 0.31311095176E+00 0.28148155808E+00 0.25328026552E+00 0.22838075125E+00 0.20663770089E+00
 0.18790289630E+00 0.17202890976E+00 0.15886731482E+00 0.14826331808E+00 0.14005550315E+00
 0.13408209607E+00 0.13019615928E+00 0.12828419835E+00 0.12828429496E+00 0.13019628282E+00
 0.14514900710E+00 0.15244408634E+00 0.16208073624E+00 0.17421432752E+00 0.18900909061E+00
 0.20663808731E+00 0.22728477381E+00 0.25114367394E+00 0.27841257267E+00 0.30927649181E+00
 0.34388095246E+00 0.38230141083E+00 0.42450914906E+00 0.47034202079E+00 0.51947794118E+00
 0.57141942346E+00 0.62548455873E+00 0.68081164636E+00 0.73637433815E+00 0.79101195105E+00
 0.84346019466E+00 0.89241315739E+00 0.93655562426E+00 0.97465958748E+00 0.10055892204E+01
 0.10284075088E+01 0.10424026278E+01 0.10471163487E+01 0.10424003285E+01 0.10284088991E+01
 0.10055929846E+01 0.97465872815E+00 0.93655994219E+00 0.89241600201E+00 0.84346657009E+00
 0.79101006937E+00 0.73637382434E+00 0.68081175897E+00 0.62548097110E+00 0.57142012172E+00
 0.51947698937E+00 0.47034186340E+00 0.42450839400E+00 0.38230106966E+00 0.34388105834E+00
 0.30927636307E+00 0.27841214109E+00 0.25114323426E+00 0.22728442010E+00 0.20663799132E+00
 0.18900923428E+00 0.17421462775E+00 0.16208103582E+00 0.15244427035E+00 0.14514903887E+00
 0.14005550315E+00 0.13704968243E+00 0.13605658204E+00 0.13704975120E+00 0.14005556952E+00
 0.15881685178E+00 0.16749366911E+00 0.17861377451E+00 0.19233974080E+00 0.20885835851E+00
 0.22838123402E+00 0.25114367394E+00 0.27739478847E+00 0.30737928355E+00 0.34130847179E+00
 0.37932750964E+00 0.42147938401E+00 0.46767375400E+00 0.51765831612E+00 0.57100009773E+00
 0.62707188196E+00 0.68505196208E+00 0.74393227283E+00 0.80254042311E+00 0.85957113823E+00
 0.91364143904E+00 0.96333284028E+00 0.10072760628E+01 0.10441758637E+01 0.10729276250E+01
 0.10926242556E+01 0.11026306624E+01 0.11026316218E+01 0.10926235811E+01 0.10729295868E+01
 0.10441769895E+01 0.10072759688E+01 0.96333566450E+00 0.91363840326E+00 0.85956657091E+00
 0.80254142824E+00 0.74393245081E+00 0.68505017177E+00 0.62707325980E+00 0.57099733674E+00
 0.51765801142E+00 0.46767305042E+00 0.42147991415E+00 0.37932757665E+00 0.34130804346E+00
 0.30737866048E+00 0.27739443305E+00 0.25114327698E+00 0.22838115761E+00 0.20885836394E+00
 0.19233997883E+00 0.17861398077E+00 0.16749392385E+00 0.15881696072E+00 0.15244427035E+00
 0.14826331808E+00 0.14619394632E+00 0.14619391432E+00 0.14826333354E+00 0.15244417174E+00
 0.17518954242E+00 0.18528548427E+00 0.19793313178E+00 0.21332224527E+00 0.23168227060E+00
 0.25328082865E+00 0.27841257267E+00 0.30737928355E+00 0.34045869810E+00 0.37786925470E+00
 0.41973159545E+00 0.46603510352E+00 0.51660703701E+00 0.57109082377E+00 0.62892837559E+00
 0.68935430938E+00 0.75139633111E+00 0.81389046932E+00 0.87550838420E+00 0.93480342802E+00
 0.99025754643E+00 0.10403606282E+01 0.10836568377E+01 0.11188541731E+01 0.11448366286E+01
 0.11607758283E+01 0.11661533346E+01 0.11607817671E+01 0.11448414087E+01 0.11188563993E+01
 0.10836659671E+01 0.10403609130E+01 0.99025918423E+00 0.93480560196E+00 0.87551199658E+00
 0.81388547691E+00 0.75139266926E+00 0.68935326086E+00 0.62892507096E+00 0.57109215316E+00
 0.51660660518E+00 0.46603499126E+00 0.41973034369E+00 0.37786811751E+00 0.34045815314E+00
 0.30737888265E+00 0.27841221415E+00 0.25328071403E+00 0.23168226313E+00 0.21332235370E+00
 0.19793328756E+00 0.18528568468E+00 0.17518976140E+00 0.16749392385E+00 0.16208103582E+00
 0.15886731482E+00 0.15780169750E+00 0.15886721207E+00 0.16208085608E+00 0.16749370527E+00
 0.19432286000E+00 0.20586103278E+00 0.22008358618E+00 0.23722755438E+00 0.25758297367E+00
 0.28148166844E+00 0.30927649181E+00 0.34130847179E+00 0.37786925470E+00 0.41915989878E+00
 0.46525482283E+00 0.51606859194E+00 0.57133156595E+00 0.63056861848E+00 0.69308798683E+00
 0.75797436581E+00 0.82409662051E+00 0.89012616474E+00 0.95457383799E+00 0.10158385402E+01
 0.10722821901E+01 0.11222890608E+01 0.11643668954E+01 0.11971830714E+01 0.12196909643E+01
 0.12311377004E+01 0.12311348685E+01 0.12196908884E+01 0.11971875880E+01 0.11643678505E+01
 0.11222897054E+01 0.10722821280E+01 0.10158370918E+01 0.95456738665E+00 0.89011890528E+00
 0.82409777528E+00 0.75797508756E+00 0.69308735403E+00 0.63057145435E+00 0.57132988113E+00
 0.51606878706E+00 0.46525409458E+00 0.41916016069E+00 0.37786915832E+00 0.34130806450E+00
 0.30927611658E+00 0.28148175124E+00 0.25758295069E+00 0.23722768017E+00 0.22008358561E+00
 0.20586119011E+00 0.19432303352E+00 0.18528568468E+00 0.17861398077E+00 0.17421462775E+00
 0.17202890976E+00 0.17202882757E+00 0.17421427137E+00 0.17861362992E+00 0.18528529978E+00
 0.21623924316E+00 0.22923960178E+00 0.24509780380E+00 0.26411658827E+00 0.28665561233E+00
 0.31311088744E+00 0.34388095246E+00 0.37932750964E+00 0.41973159545E+00 0.46525482283E+00
 0.51590370158E+00 0.57150303303E+00 0.63167176957E+00 0.69580734923E+00 0.76307215982E+00
 0.83239282566E+00 0.90246798114E+00 0.97179640461E+00 0.10387214865E+01 0.11014984205E+01
 0.11583606702E+01 0.12076187701E+01 0.12477217680E+01 0.12773809180E+01 0.12955878574E+01
 0.13017280236E+01 0.12955926315E+01 0.12773850595E+01 0.12477286475E+01 0.12076190305E+01
 0.11583649142E+01 0.11014962755E+01 0.10387197792E+01 0.97179702893E+00 0.90247085342E+00
 0.83238896879E+00 0.76307110449E+00 0.69580894713E+00 0.63167078625E+00 0.57150594606E+00
 0.51590397251E+00 0.46525491065E+00 0.41973040224E+00 0.37932659634E+00 0.34388100317E+00
 0.31311127990E+00 0.28665588432E+00 0.26411682218E+00 0.24509783744E+00 0.22923961044E+00
 0.21623935693E+00 0.20586119011E+00 0.19793328756E+00 0.19233997883E+00 0.18900923428E+00
 0.18790289630E+00 0.18900887003E+00 0.19233940675E+00 0.19793274075E+00 0.20586083634E+00
 0.24094646031E+00 0.25543286421E+00 0.27300549975E+00 0.29404283192E+00 0.31897562137E+00
 0.34825290146E+00 0.38230141083E+00 0.42147938401E+00 0.46603510352E+00 0.51606859194E+00
 0.57150303303E+00 0.63205856195E+00 0.69723342571E+00 0.76628502650E+00 0.83822117731E+00
 0.91179738478E+00 0.98553486673E+00 0.10577547720E+01 0.11266362169E+01 0.11902861231E+01
 0.12468361601E+01 0.12945203029E+01 0.13317939115E+01 0.13573811440E+01 0.13704091581E+01
 0.13704105976E+01 0.13573820026E+01 0.13317897562E+01 0.12945213057E+01 0.12468343791E+01
 0.11902803268E+01 0.11266326938E+01 0.10577520339E+01 0.98553004479E+00 0.91179304659E+00
 0.83822682907E+00 0.76629014157E+00 0.69723618934E+00 0.63206323752E+00 0.57150174200E+00
 0.51606855435E+00 0.46603409049E+00 0.42147986320E+00 0.38230209508E+00 0.34825349290E+00
 0.31897610092E+00 0.29404353716E+00 0.27300569412E+00 0.25543300638E+00 0.24094643296E+00
 0.22923961044E+00 0.22008358561E+00 0.21332235370E+00 0.20885836394E+00 0.20663799132E+00
 0.20663770089E+00 0.20885782175E+00 0.21332159479E+00 0.22008310885E+00 0.22923929527E+00
 0.26844942779E+00 0.28445184809E+00 0.30382925503E+00 0.32703918964E+00 0.35457411130E+00
 0.38692023308E+00 0.42450914906E+00 0.46767375400E+00 0.51660703701E+00 0.57133156595E+00
 0.63167176957E+00 0.69723342571E+00 0.76738105114E+00 0.84122271031E+00 0.91759767166E+00
 0.99508309254E+00 0.10720152420E+01 0.11465377855E+01 0.12166681602E+01 0.12803883474E+01
 0.13357317900E+01 0.13809032935E+01 0.14143563252E+01 0.14349302188E+01 0.14418689031E+01
 0.14349274411E+01 0.14143611524E+01 0.13809037523E+01 0.13357320330E+01 0.12803854640E+01
 0.12166698061E+01 0.11465349179E+01 0.10720143645E+01 0.99508790188E+00 0.91760555477E+00
 0.84122248045E+00 0.76738290881E+00 0.69723636208E+00 0.63167093028E+00 0.57133420257E+00
 0.51660677620E+00 0.46767366200E+00 0.42450811884E+00 0.38691975025E+00 0.35457478423E+00
 0.32704017757E+00 0.30382983166E+00 0.28445225150E+00 0.26844959454E+00 0.25543300638E+00
 0.24509783744E+00 0.23722768017E+00 0.23168226313E+00 0.22838115761E+00 0.22728442010E+00
 0.22838075125E+00 0.23168163227E+00 0.23722705979E+00 0.24509742568E+00 0.25543276931E+00
 0.29875180182E+00 0.31629850637E+00 0.33756885358E+00 0.36309217423E+00 0.39340895963E+00
 0.42902048939E+00 0.47034202079E+00 0.51765831612E+00 0.57109082377E+00 0.63056861848E+00
 0.69580734923E+00 0.76628502650E+00 0.84122271031E+00 0.91956447799E+00 0.99997316887E+00
 0.10808383164E+01 0.11603124711E+01 0.12363669804E+01 0.13068739648E+01 0.13696981993E+01
 0.14228173506E+01 0.14644190736E+01 0.14930384286E+01 0.15076124420E+01 0.15076139544E+01
 0.14930350146E+01 0.14644163677E+01 0.14228101472E+01 0.13696934312E+01 0.13068697321E+01
 0.12363605622E+01 0.11603120905E+01 0.10808393408E+01 0.99997170907E+00 0.91956356186E+00
 0.84123113328E+00 0.76629006330E+00 0.69580901332E+00 0.63057166539E+00 0.57108730203E+00
 0.51765693477E+00 0.47034015360E+00 0.42902083278E+00 0.39340973863E+00 0.36309282323E+00
 0.33756917614E+00 0.31629927229E+00 0.29875212765E+00 0.28445225150E+00 0.27300569412E+00
 0.26411682218E+00 0.25758295069E+00 0.25328071403E+00 0.25114327698E+00 0.25114323426E+00
 0.25328026552E+00 0.25758258595E+00 0.26411626832E+00 0.27300540104E+00 0.28445174023E+00
 0.33184103444E+00 0.35094578690E+00 0.37417284205E+00 0.40211226409E+00 0.43533212001E+00
 0.47432863659E+00 0.51947794118E+00 0.57100009773E+00 0.62892837559E+00 0.69308798683E+00
 0.76307215982E+00 0.83822117731E+00 0.91759767166E+00 0.99997316887E+00 0.10838239127E+01
 0.11673531510E+01 0.12485329726E+01 0.13251756703E+01 0.13950235290E+01 0.14558635478E+01
 0.15056368310E+01 0.15425800395E+01 0.15653166713E+01 0.15729997999E+01 0.15653176431E+01
 0.15425739106E+01 0.15056352557E+01 0.14558628659E+01 0.13950235907E+01 0.13251750098E+01
 0.12485390387E+01 0.11673551768E+01 0.10838271266E+01 0.99997988967E+00 0.91760348404E+00
 0.83821547589E+00 0.76307041125E+00 0.69308668148E+00 0.62892388426E+00 0.57100194874E+00
 0.51947687558E+00 0.47432857461E+00 0.43533051112E+00 0.40211098685E+00 0.37417259966E+00
 0.35094629989E+00 0.33184130757E+00 0.31629927229E+00 0.30382983166E+00 0.29404353716E+00
 0.28665588432E+00 0.28148175124E+00 0.27841221415E+00 0.27739443305E+00 0.27841214109E+00
 0.28148155808E+00 0.28665562509E+00 0.29404310091E+00 0.30382941220E+00 0.31629869703E+00
 0.36766359504E+00 0.38830601979E+00 0.41350780773E+00 0.44390123792E+00 0.48006329714E+00
 0.52246261725E+00 0.57141942346E+00 0.62707188196E+00 0.68935430938E+00 0.75797436581E+00
 0.83239282566E+00 0.91179738478E+00 0.99508309254E+00 0.10808383164E+01 0.11673531510E+01
 0.12526465101E+01 0.13345241075E+01 0.14106582945E+01 0.14786936305E+01 0.15363632360E+01
 0.15816325495E+01 0.16128160240E+01 0.16287255164E+01 0.16287191527E+01 0.16128140112E+01
 0.15816283077E+01 0.15363585175E+01 0.14786872246E+01 0.14106560463E+01 0.13345243710E+01
 0.12526410475E+01 0.11673527012E+01 0.10808362815E+01 0.99507807267E+00 0.91179388066E+00
 0.83239583864E+00 0.75796817271E+00 0.68935422444E+00 0.62707273074E+00 0.57141320863E+00
 0.52246183948E+00 0.48006051544E+00 0.44390171370E+00 0.41350773550E+00 0.38830606885E+00
 0.36766276857E+00 0.35094629989E+00 0.33756917614E+00 0.32704017757E+00 0.31897610092E+00
 0.31311127990E+00 0.30927611658E+00 0.30737888265E+00 0.30737866048E+00 0.30927636307E+00
 0.31311095176E+00 0.31897615177E+00 0.32703957299E+00 0.33756921837E+00 0.35094579549E+00
 0.40609106118E+00 0.42819964329E+00 0.45532631803E+00 0.48812745241E+00 0.52716809861E+00
 0.57287120304E+00 0.62548455873E+00 0.68505196208E+00 0.75139633111E+00 0.82409662051E+00
 0.90246798114E+00 0.98553486673E+00 0.10720152420E+01 0.11603124711E+01 0.12485329726E+01
 0.13345241075E+01 0.14159442238E+01 0.14903528163E+01 0.15553300765E+01 0.16086119619E+01
 0.16482268374E+01 0.16726488078E+01 0.16808945301E+01 0.16726468781E+01 0.16482245114E+01
 0.16086070324E+01 0.15553295935E+01 0.14903579073E+01 0.14159517830E+01 0.13345329014E+01
 0.12485481980E+01 0.11603161667E+01 0.10720084963E+01 0.98552010830E+00 0.90245543936E+00
 0.82409215090E+00 0.75139245389E+00 0.68503413420E+00 0.62548673266E+00 0.57287285700E+00
 0.52716962562E+00 0.48812992875E+00 0.45532492303E+00 0.42819813814E+00 0.40608968323E+00
 0.38830606885E+00 0.37417259966E+00 0.36309282323E+00 0.35457478423E+00 0.34825349290E+00
 0.34388100317E+00 0.34130806450E+00 0.34045815314E+00 0.34130804346E+00 0.34388105834E+00
 0.34825335448E+00 0.35457491403E+00 0.36309273078E+00 0.37417329685E+00 0.38830611233E+00
 0.44688915762E+00 0.47032567440E+00 0.49924402731E+00 0.53430783255E+00 0.57604891979E+00
 0.62483034275E+00 0.68081164636E+00 0.74393227283E+00 0.81389046932E+00 0.89012616474E+00
 0.97179640461E+00 0.10577547720E+01 0.11465377855E+01 0.12363669804E+01 0.13251756703E+01
 0.14106582945E+01 0.14903528163E+01 0.15617438576E+01 0.16223963516E+01 0.16700927329E+01
 0.17030016858E+01 0.17197963952E+01 0.17198009967E+01 0.17029954758E+01 0.16700904780E+01
 0.16223970585E+01 0.15617498769E+01 0.14903550458E+01 0.14106614034E+01 0.13251759610E+01
 0.12363615702E+01 0.11465464613E+01 0.10577734656E+01 0.97179448562E+00 0.89009036666E+00
 0.81386355976E+00 0.74395072789E+00 0.68081078782E+00 0.62482218077E+00 0.57605726634E+00
 0.53430189202E+00 0.49924889949E+00 0.47032481936E+00 0.44689318128E+00 0.42819813814E+00
 0.41350773550E+00 0.40211098685E+00 0.39340973863E+00 0.38691975025E+00 0.38230209508E+00
 0.37932659634E+00 0.37786915832E+00 0.37786811751E+00 0.37932757665E+00 0.38230106966E+00
 0.38692103822E+00 0.39340912830E+00 0.40211292141E+00 0.41350764662E+00 0.42820007172E+00
 0.48969282405E+00 0.51424172802E+00 0.54472666840E+00 0.58180229912E+00 0.62594686969E+00
 0.67745254732E+00 0.73637433815E+00 0.80254042311E+00 0.87550838420E+00 0.95457383799E+00
 0.10387214865E+01 0.11266362169E+01 0.12166681602E+01 0.13068739648E+01 0.13950235290E+01
 0.14786936305E+01 0.15553300765E+01 0.16223963516E+01 0.16774850927E+01 0.17185098104E+01
 0.17438189199E+01 0.17523810677E+01 0.17438158522E+01 0.17185121910E+01 0.16774896421E+01
 0.16223959920E+01 0.15553244704E+01 0.14786884071E+01 0.13950109203E+01 0.13068486528E+01
 0.12166376466E+01 0.11265912873E+01 0.10387006351E+01 0.95459797993E+00 0.87552324550E+00
 0.80249318258E+00 0.73635698394E+00 0.67746862416E+00 0.62592891899E+00 0.58182208714E+00
 0.54473186599E+00 0.51424974409E+00 0.48969484517E+00 0.47032481936E+00 0.45532492303E+00
 0.44390171370E+00 0.43533051112E+00 0.42902083278E+00 0.42450811884E+00 0.42147986320E+00
 0.41973040224E+00 0.41916016069E+00 0.41973034369E+00 0.42147991415E+00 0.42450839400E+00
 0.42902152256E+00 0.43533156170E+00 0.44390222777E+00 0.45532551177E+00 0.47032639508E+00
 0.53399310308E+00 0.55935459984E+00 0.59109138688E+00 0.62981887035E+00 0.67595838888E+00
 0.72970546471E+00 0.79101195105E+00 0.85957113823E+00 0.93480342802E+00 0.10158385402E+01
 0.11014984205E+01 0.11902861231E+01 0.12803883474E+01 0.13696981993E+01 0.14558635478E+01
 0.15363632360E+01 0.16086119619E+01 0.16700927329E+01 0.17185098104E+01 0.17519459310E+01
 0.17690274266E+01 0.17690243916E+01 0.17519518580E+01 0.17185096280E+01 0.16700887862E+01
 0.16086133315E+01 0.15363799093E+01 0.14558875077E+01 0.13697269026E+01 0.12804073114E+01
 0.11902617497E+01 0.11014513748E+01 0.10157924453E+01 0.93479623239E+00 0.85958449491E+00
 0.79099094130E+00 0.72969307103E+00 0.67600125390E+00 0.62981027681E+00 0.59110293843E+00
 0.55936000974E+00 0.53399618957E+00 0.51424974409E+00 0.49924889949E+00 0.48812992875E+00
 0.48006051544E+00 0.47432857461E+00 0.47034015360E+00 0.46767366200E+00 0.46603409049E+00
 0.46525491065E+00 0.46525409458E+00 0.46603499126E+00 0.46767305042E+00 0.47034186340E+00
 0.47432812967E+00 0.48006322508E+00 0.48812741329E+00 0.49924455013E+00 0.51424107475E+00
 0.57912904783E+00 0.60493238070E+00 0.63751217115E+00 0.67744022804E+00 0.72505346202E+00
 0.78045180799E+00 0.84346019466E+00 0.91364143904E+00 0.99025754643E+00 0.10722821901E+01
 0.11583606702E+01 0.12468361601E+01 0.13357317900E+01 0.14228173506E+01 0.15056368310E+01
 0.15816325495E+01 0.16482268374E+01 0.17030016858E+01 0.17438189199E+01 0.17690274266E+01
 0.17775470847E+01 0.17690328147E+01 0.17438184821E+01 0.17030027128E+01 0.16482454414E+01
 0.15816720488E+01 0.15056784217E+01 0.14228674149E+01 0.13357804611E+01 0.12468775583E+01
 0.11583886976E+01 0.10722396462E+01 0.99017779156E+00 0.91363916534E+00 0.84352238723E+00
 0.78043255748E+00 0.72500261546E+00 0.67746909157E+00 0.63749320215E+00 0.60494895056E+00
 0.57914327833E+00 0.55936000974E+00 0.54473186599E+00 0.53430189202E+00 0.52716962562E+00
 0.52246183948E+00 0.51947687558E+00 0.51765693477E+00 0.51660677620E+00 0.51606855435E+00
 0.51590397251E+00 0.51606878706E+00 0.51660660518E+00 0.51765801142E+00 0.51947698937E+00
 0.52246246756E+00 0.52716735104E+00 0.53430838533E+00 0.54472759346E+00 0.55935575697E+00
 0.62431156413E+00 0.65010984935E+00 0.68305639263E+00 0.72364041684E+00 0.77212402470E+00
 0.82847728713E+00 0.89241315739E+00 0.96333284028E+00 0.10403606282E+01 0.11222890608E+01
 0.12076187701E+01 0.12945203029E+01 0.13809032935E+01 0.14644190736E+01 0.15425800395E+01
 0.16128160240E+01 0.16726488078E+01 0.17197963952E+01 0.17523810677E+01 0.17690243916E+01
 0.17690328147E+01 0.17523775136E+01 0.17198062354E+01 0.16726747729E+01 0.16128553190E+01
 0.15425962044E+01 0.14644373558E+01 0.13809155958E+01 0.12945648078E+01 0.12076885705E+01
 0.11223217946E+01 0.10403418896E+01 0.96328016187E+00 0.89238561064E+00 0.82850572412E+00
 0.77210749255E+00 0.72362920821E+00 0.68312714215E+00 0.65011637364E+00 0.62433521323E+00
 0.60494895056E+00 0.59110293843E+00 0.58182208714E+00 0.57605726634E+00 0.57287285700E+00
 0.57141320863E+00 0.57100194874E+00 0.57108730203E+00 0.57133420257E+00 0.57150174200E+00
 0.57150594606E+00 0.57132988113E+00 0.57109215316E+00 0.57099733674E+00 0.57142012172E+00
 0.57286911096E+00 0.57605085438E+00 0.58180074329E+00 0.59109401604E+00 0.60493101495E+00
 0.66862571850E+00 0.69393754287E+00 0.72669627711E+00 0.76734373607E+00 0.81600462807E+00
 0.87256085953E+00 0.93655562426E+00 0.10072760628E+01 0.10836568377E+01 0.11643668954E+01
 0.12477217680E+01 0.13317939115E+01 0.14143563252E+01 0.14930384286E+01 0.15653166713E+01
 0.16287255164E+01 0.16808945301E+01 0.17198009967E+01 0.17438158522E+01 0.17519518580E+01
 0.17438184821E+01 0.17198062354E+01 0.16809261039E+01 0.16287563597E+01 0.15653153491E+01
 0.14930273783E+01 0.14143346233E+01 0.13317993376E+01 0.12477596041E+01 0.11644250489E+01
 0.10837400102E+01 0.10072607574E+01 0.93645295707E+00 0.87255748048E+00 0.81610587147E+00
 0.76732853137E+00 0.72665423358E+00 0.69395218397E+00 0.66856644825E+00 0.65011637364E+00
 0.63749320215E+00 0.62981027681E+00 0.62592891899E+00 0.62482218077E+00 0.62548673266E+00
 0.62707273074E+00 0.62892388426E+00 0.63057166539E+00 0.63167093028E+00 0.63206323752E+00
 0.63167078625E+00 0.63057145435E+00 0.62892507096E+00 0.62707325980E+00 0.62548097110E+00
 0.62483278085E+00 0.62594606763E+00 0.62982315084E+00 0.63751173944E+00 0.65011485977E+00
 0.71109911464E+00 0.73538032979E+00 0.76738490140E+00 0.80743017758E+00 0.85555747754E+00
 0.91148898890E+00 0.97465958748E+00 0.10441758637E+01 0.11188541731E+01 0.11971830714E+01
 0.12773809180E+01 0.13573811440E+01 0.14349302188E+01 0.15076124420E+01 0.15729997999E+01
 0.16287191527E+01 0.16726468781E+01 0.17029954758E+01 0.17185121910E+01 0.17185096280E+01
 0.17030027128E+01 0.16726747729E+01 0.16287563597E+01 0.15729863619E+01 0.15075918981E+01
 0.14348764813E+01 0.13573541663E+01 0.12773619884E+01 0.11972226192E+01 0.11189684378E+01
 0.10442250265E+01 0.97460515516E+00 0.91145206313E+00 0.85559225997E+00 0.80744586543E+00
 0.76728055552E+00 0.73537834889E+00 0.71115893667E+00 0.69395218397E+00 0.68312714215E+00
 0.67746909157E+00 0.67600125390E+00 0.67746862416E+00 0.68081078782E+00 0.68503413420E+00
 0.68935422444E+00 0.69308668148E+00 0.69580901332E+00 0.69723636208E+00 0.69723618934E+00
 0.69580894713E+00 0.69308735403E+00 0.68935326086E+00 0.68505017177E+00 0.68081175896E+00
 0.67745181187E+00 0.67596084078E+00 0.67744081991E+00 0.68305728220E+00 0.69393457847E+00
 0.75068907797E+00 0.77340868373E+00 0.80404790189E+00 0.84283367517E+00 0.88967026114E+00
 0.94416263345E+00 0.10055892204E+01 0.10729276250E+01 0.11448366286E+01 0.12196909643E+01
 0.12955878574E+01 0.13704091581E+01 0.14418689031E+01 0.15076139544E+01 0.15653176431E+01
 0.16128140112E+01 0.16482245114E+01 0.16700904780E+01 0.16774896421E+01 0.16700887862E+01
 0.16482454414E+01 0.16128553190E+01 0.15653153491E+01 0.15075918981E+01 0.14418111981E+01
 0.13703651471E+01 0.12955452311E+01 0.12196997061E+01 0.11449351813E+01 0.10729962288E+01
 0.10056469099E+01 0.94413258681E+00 0.88958072450E+00 0.84283426997E+00 0.80408497791E+00
 0.77338256996E+00 0.75076891087E+00 0.73537834889E+00 0.72665423358E+00 0.72362920821E+00
 0.72500261546E+00 0.72969307103E+00 0.73635698394E+00 0.74395072789E+00 0.75139245389E+00
 0.75796817271E+00 0.76307041125E+00 0.76629006330E+00 0.76738290881E+00 0.76629014157E+00
 0.76307110449E+00 0.75797508756E+00 0.75139266926E+00 0.74393245081E+00 0.73637382434E+00
 0.72970835838E+00 0.72505510163E+00 0.72364490484E+00 0.72669871719E+00 0.73538242977E+00
 0.78637184634E+00 0.80699446762E+00 0.83567775088E+00 0.87254172103E+00 0.91735667331E+00
 0.96960098521E+00 0.10284075088E+01 0.10926242556E+01 0.11607758283E+01 0.12311377004E+01
 0.13017280236E+01 0.13704105976E+01 0.14349274411E+01 0.14930350146E+01 0.15425739106E+01
 0.15816283077E+01 0.16086070324E+01 0.16223970585E+01 0.16223959920E+01 0.16086133315E+01
 0.15816720488E+01 0.15425962044E+01 0.14930273783E+01 0.14348764813E+01 0.13703651471E+01
 0.13016727192E+01 0.12311262669E+01 0.11608425876E+01 0.10926902973E+01 0.10285451357E+01
 0.96960159628E+00 0.91719944076E+00 0.87251660380E+00 0.83580785288E+00 0.80696291295E+00
 0.78627899185E+00 0.77338256996E+00 0.76728055552E+00 0.76732853137E+00 0.77210749255E+00
 0.78043255748E+00 0.79099094130E+00 0.80249318258E+00 0.81386355976E+00 0.82409215090E+00
 0.83239583864E+00 0.83821547589E+00 0.84123113328E+00 0.84122248045E+00 0.83822682907E+00
 0.83238896879E+00 0.82409777528E+00 0.81388547691E+00 0.80254142824E+00 0.79101006937E+00
 0.78045536559E+00 0.77212200513E+00 0.76734402437E+00 0.76738123376E+00 0.77340902034E+00
 0.81716648090E+00 0.83517806776E+00 0.86135943817E+00 0.89566656505E+00 0.93778348867E+00
 0.98701553343E+00 0.10424026278E+01 0.11026306624E+01 0.11661533346E+01 0.12311348685E+01
 0.12955926315E+01 0.13573820026E+01 0.14143611524E+01 0.14644163677E+01 0.15056352557E+01
 0.15363585175E+01 0.15553295935E+01 0.15617498769E+01 0.15553244704E+01 0.15363799093E+01
 0.15056784217E+01 0.14644373558E+01 0.14143346233E+01 0.13573541663E+01 0.12955452311E+01
 0.12311262669E+01 0.11662090512E+01 0.11026949928E+01 0.10425755727E+01 0.98703870403E+00
 0.93763393429E+00 0.89563248001E+00 0.86146210822E+00 0.83514668780E+00 0.81698121692E+00
 0.80696291295E+00 0.80408497791E+00 0.80744586543E+00 0.81610587147E+00 0.82850572412E+00
 0.84352238723E+00 0.85958449491E+00 0.87552324550E+00 0.89009036666E+00 0.90245543936E+00
 0.91179388066E+00 0.91760348404E+00 0.91956356186E+00 0.91760555477E+00 0.91179304659E+00
 0.90247085342E+00 0.89011890528E+00 0.87551199658E+00 0.85956657091E+00 0.84346657009E+00
 0.82847603619E+00 0.81601205722E+00 0.80742628390E+00 0.80405069094E+00 0.80698707583E+00
 0.84216253873E+00 0.85713281379E+00 0.88030098269E+00 0.91150767267E+00 0.95030179114E+00
 0.99586735632E+00 0.10471163487E+01 0.11026316218E+01 0.11607817671E+01 0.12196908884E+01