ws2                                     
   5.4299999999999997     
     0.000000    0.503541    0.503541
     0.503541    0.000000    0.503541
     0.503541    0.503541    0.000000
   Si
     2
Direct
  0.000000  0.000000  0.000000
  0.250000  0.250000  0.250000

   56   56   56
 -.76492283018E+01 -.70442707940E+01 -.53012825929E+01 -.26221594173E+01 0.69290201432E+00
 0.42939427316E+01 0.78320658959E+01 0.11007306123E+02 0.13597778645E+02 0.15476653918E+02
 0.16607790880E+02 0.17036400917E+02 0.16868136517E+02 0.16251391391E+02 0.15353013422E+02
 0.14333651011E+02 0.13283336646E+02 0.12246756412E+02 0.11263072278E+02 0.10359966589E+02
 0.95549290429E+01 0.88545974894E+01 0.82585943538E+01 0.77622996537E+01 0.73604726866E+01
 0.70490750629E+01 0.68263672929E+01 0.66922485974E+01 0.66474364055E+01 0.66922485857E+01
 0.68263636320E+01 0.70490713377E+01 0.73604675585E+01 0.77622918621E+01 0.82585942654E+01
 0.88545877394E+01 0.95549384841E+01 0.10359977646E+02 0.11263066252E+02 0.12246745527E+02
 0.13283339728E+02 0.14333657373E+02 0.15353008754E+02 0.16251388964E+02 0.16868137865E+02
 0.17036397743E+02 0.16607794489E+02 0.15476654088E+02 0.13597781964E+02 0.11007307922E+02
 0.78320675930E+01 0.42939432478E+01 0.69290177215E+00 -.26221601960E+01 -.53012825803E+01
 -.70442709688E+01 -.70442707940E+01 -.58153263556E+01 -.35057281857E+01 -.38614359600E+00
 0.31958273805E+01 0.68714868185E+01 0.10304501180E+02 0.13229712260E+02 0.15476563466E+02
 0.16970614170E+02 0.17725775492E+02 0.17824815403E+02 0.17401430364E+02 0.16615845682E+02
 0.15637764518E+02 0.14594703499E+02 0.13542913830E+02 0.12523853170E+02 0.11570590102E+02
 0.10706046915E+02 0.99420790194E+01 0.92821595853E+01 0.87238735826E+01 0.82627469568E+01
 0.78947261148E+01 0.76178535934E+01 0.74321462187E+01 0.73387942313E+01 0.73388004753E+01
 0.74321463007E+01 0.76178630506E+01 0.78947281732E+01 0.82627620554E+01 0.87238703572E+01
 0.92821747664E+01 0.99420639865E+01 0.10706038779E+02 0.11570589853E+02 0.12523871120E+02
 0.13542905161E+02 0.14594701933E+02 0.15637763680E+02 0.16615857783E+02 0.17401412936E+02
 0.17824832957E+02 0.17725762758E+02 0.16970647983E+02 0.15476532453E+02 0.13229761344E+02
 0.10304452388E+02 0.68715540624E+01 0.31958421200E+01 -.38615052316E+00 -.35056688046E+01
 -.58153926143E+01 -.70443363039E+01 -.53012825929E+01 -.35057281857E+01 -.75899495183E+00
 0.26160112332E+01 0.62501355848E+01 0.97840967547E+01 0.12917565539E+02 0.15438448853E+02
 0.17233661380E+02 0.18282492022E+02 0.18641870578E+02 0.18425105842E+02 0.17782143178E+02
 0.16877728973E+02 0.15863543991E+02 0.14818793548E+02 0.13785414454E+02 0.12800682356E+02
 0.11891421921E+02 0.11074894780E+02 0.10358449562E+02 0.97427431830E+01 0.92246168775E+01
 0.88006339430E+01 0.84688517377E+01 0.82295879898E+01 0.80846879270E+01 0.80360997273E+01
 0.80846791329E+01 0.82295804418E+01 0.84688420429E+01 0.88006213554E+01 0.92246106713E+01
 0.97427332149E+01 0.10358462158E+02 0.11074910473E+02 0.11891415675E+02 0.12800668326E+02
 0.13785417876E+02 0.14818804345E+02 0.15863539458E+02 0.16877720604E+02 0.17782143685E+02
 0.18425117315E+02 0.18641897058E+02 0.18282487681E+02 0.17233677791E+02 0.15438430008E+02
 0.12917618698E+02 0.97840779090E+01 0.62501799686E+01 0.26160112646E+01 -.75907516307E+00
 -.35057202936E+01 -.53012160409E+01 -.59259266261E+01 -.26221594173E+01 -.38614359600E+00
 0.26160112332E+01 0.60353335422E+01 0.95081652836E+01 0.12710415612E+02 0.15395431269E+02
 0.17412310407E+02 0.18705216198E+02 0.19301396814E+02 0.19290974447E+02 0.18808056673E+02
 0.18007528609E+02 0.17047503124E+02 0.16032592225E+02 0.15008553439E+02 0.14014188914E+02
 0.13079357827E+02 0.12225714048E+02 0.11464346956E+02 0.10799354988E+02 0.10229480939E+02
 0.97525534263E+01 0.93669105570E+01 0.90735355979E+01 0.88750189319E+01 0.87746994035E+01
 0.87747039438E+01 0.88750377341E+01 0.90735460037E+01 0.93669325382E+01 0.97525575026E+01
 0.10229497732E+02 0.10799332702E+02 0.11464330376E+02 0.12225715936E+02 0.13079382195E+02
 0.14014181678E+02 0.15008544660E+02 0.16032593814E+02 0.17047511936E+02 0.18007517662E+02
 0.18808064387E+02 0.19290943272E+02 0.19301394785E+02 0.18705206307E+02 0.17412333568E+02
 0.15395407770E+02 0.12710446084E+02 0.95081402391E+01 0.60354055079E+01 0.26160076448E+01
 -.38611387380E+00 -.26222158076E+01 -.38163991751E+01 -.38163487794E+01 0.69290201432E+00
 0.31958273805E+01 0.62501355848E+01 0.95081652836E+01 0.12638021344E+02 0.15368768179E+02
 0.17516327622E+02 0.18990638815E+02 0.19787132852E+02 0.19970376789E+02 0.19654076105E+02
 0.18980193911E+02 0.18101239955E+02 0.17139634924E+02 0.16149944707E+02 0.15170165199E+02
 0.14232393053E+02 0.13360941174E+02 0.12570422804E+02 0.11868209095E+02 0.11255425779E+02
 0.10731452623E+02 0.10295338266E+02 0.99490686996E+01 0.96961251394E+01 0.95417618890E+01
 0.94896653970E+01 0.95417431888E+01 0.96960964728E+01 0.99490439492E+01 0.10295324592E+02
 0.10731444357E+02 0.11255452072E+02 0.11868235759E+02 0.12570414006E+02 0.13360916415E+02
 0.14232399373E+02 0.15170180757E+02 0.16149934422E+02 0.17139626772E+02 0.18101248533E+02
 0.18980196085E+02 0.19654098437E+02 0.19970375918E+02 0.19787136265E+02 0.18990608926E+02
 0.17516316536E+02 0.15368760823E+02 0.12637980992E+02 0.95081763053E+01 0.62500617072E+01
 0.31958053029E+01 0.69294795776E+00 -.95088081872E+00 -.15240295370E+01 -.95091695151E+00
 0.42939427316E+01 0.68714868185E+01 0.97840967547E+01 0.12710415612E+02 0.15368768179E+02
 0.17550617067E+02 0.19134744990E+02 0.20085208504E+02 0.20438818503E+02 0.20286153897E+02
 0.19752642229E+02 0.18979243818E+02 0.18094798653E+02 0.17164562387E+02 0.16224861825E+02
 0.15308995676E+02 0.14442138344E+02 0.13642148505E+02 0.12918677657E+02 0.12275637319E+02
 0.11713594618E+02 0.11233275649E+02 0.10837377360E+02 0.10531127988E+02 0.10321390624E+02
 0.10214577915E+02 0.10214598313E+02 0.10321421862E+02 0.10531180946E+02 0.10837379177E+02
 0.11233284927E+02 0.11713541140E+02 0.12275610645E+02 0.12918686156E+02 0.13642195578E+02
 0.14442117049E+02 0.15308982704E+02 0.16224863859E+02 0.17164581562E+02 0.18094771794E+02
 0.18979265043E+02 0.19752608799E+02 0.20286178005E+02 0.20438781005E+02 0.20085225249E+02
 0.19134709879E+02 0.17550617888E+02 0.15368768716E+02 0.12710405225E+02 0.97841561337E+01
 0.68715772026E+01 0.42939229695E+01 0.23634946574E+01 0.13291486632E+01 0.13291515177E+01
 0.23635297979E+01 0.78320658959E+01 0.10304501180E+02 0.12917565539E+02 0.15395431269E+02
 0.17516327622E+02 0.19134744990E+02 0.20185697178E+02 0.20678009291E+02 0.20677104485E+02
 0.20289203954E+02 0.19639988783E+02 0.18855603940E+02 0.18008595945E+02 0.17134536186E+02
 0.16265981881E+02 0.15428430113E+02 0.14641357003E+02 0.13916212533E+02 0.13258850013E+02
 0.12671498441E+02 0.12156366303E+02 0.11717228962E+02 0.11360909570E+02 0.11096367228E+02
 0.10932961972E+02 0.10877585899E+02 0.10932927520E+02 0.11096312356E+02 0.11360896293E+02
 0.11717264460E+02 0.12156438488E+02 0.12671534420E+02 0.13258813506E+02 0.13916163814E+02
 0.14641386535E+02 0.15428451909E+02 0.16265960585E+02 0.17134525523E+02 0.18008621822E+02
 0.18855585877E+02 0.19640028899E+02 0.20289187418E+02 0.20677124702E+02 0.20677989708E+02
 0.20185731282E+02 0.19134744036E+02 0.17516302021E+02 0.15395462248E+02 0.12917523362E+02
 0.10304461462E+02 0.78320950271E+01 0.57935525426E+01 0.44490679565E+01 0.39795799534E+01
 0.44491864423E+01 0.57935286172E+01 0.11007306123E+02 0.13229712260E+02 0.15438448853E+02
 0.17412310407E+02 0.18990638815E+02 0.20085208504E+02 0.20678009291E+02 0.20809489400E+02
 0.20564205158E+02 0.20050651140E+02 0.19385462183E+02 0.18643116113E+02 0.17858314062E+02
 0.17061905264E+02 0.16278765065E+02 0.15528661817E+02 0.14823799363E+02 0.14171389074E+02
 0.13575075103E+02 0.13038098851E+02 0.12565194275E+02 0.12164716952E+02 0.11848058113E+02
 0.11627731147E+02 0.11514484865E+02 0.11514496087E+02 0.11627772256E+02 0.11848049921E+02
 0.12164642615E+02 0.12565073970E+02 0.13038086675E+02 0.13575146095E+02 0.14171449120E+02
 0.14823739161E+02 0.15528642155E+02 0.16278795913E+02 0.17061908202E+02 0.17858286976E+02
 0.18643144934E+02 0.19385422887E+02 0.20050682530E+02 0.20564171730E+02 0.20809518531E+02
 0.20677962413E+02 0.20085170774E+02 0.18990665709E+02 0.17412256049E+02 0.15438506415E+02
 0.13229777382E+02 0.11007235493E+02 0.90258227763E+01 0.75348539591E+01 0.67338549013E+01
 0.67338200982E+01 0.75347728731E+01 0.90258146192E+01 0.13597778645E+02 0.15476563466E+02
 0.17233661380E+02 0.18705216198E+02 0.19787132852E+02 0.20438818503E+02 0.20677104485E+02
 0.20564205158E+02 0.20189953470E+02 0.19657496274E+02 0.19037130364E+02 0.18361818353E+02
 0.17659981226E+02 0.16955103633E+02 0.16265997854E+02 0.15604669427E+02 0.14978888035E+02
 0.14392840313E+02 0.13850118691E+02 0.13356119072E+02 0.12920774041E+02 0.12557660993E+02
 0.12282641276E+02 0.12110423729E+02 0.12051779797E+02 0.12110427082E+02 0.12282694940E+02
 0.12557771795E+02 0.12920917617E+02 0.13356075537E+02 0.13849983355E+02 0.14392813666E+02
 0.14978990188E+02 0.15604668018E+02 0.16265943390E+02 0.16955122502E+02 0.17660004902E+02
 0.18361787880E+02 0.19037183681E+02 0.19657464356E+02 0.20189995884E+02 0.20564177590E+02
 0.20677121678E+02 0.20438860990E+02 0.19787088618E+02 0.18705283059E+02 0.17233573480E+02
 0.15476512275E+02 0.13597849567E+02 0.11804760123E+02 0.10317644487E+02 0.93337479705E+01
 0.89894009135E+01 0.93337879504E+01 0.10317738556E+02 0.11804742633E+02 0.15476653918E+02
 0.16970614170E+02 0.18282492022E+02 0.19301396814E+02 0.19970376789E+02 0.20286153897E+02
 0.20289203954E+02 0.20050651140E+02 0.19657496274E+02 0.19170784069E+02 0.18620141722E+02
 0.18031248130E+02 0.17425452707E+02 0.16819685556E+02 0.16224854967E+02 0.15648220210E+02
 0.15093483872E+02 0.14563787784E+02 0.14064995570E+02 0.13607920030E+02 0.13207795092E+02
 0.12883162171E+02 0.12653085669E+02 0.12533475819E+02 0.12533454455E+02 0.12653005859E+02
 0.12883055933E+02 0.13207722058E+02 0.13608045507E+02 0.14065177532E+02 0.14563724353E+02
 0.15093355012E+02 0.15648276955E+02 0.16224912139E+02 0.16819622931E+02 0.17425459968E+02
 0.18031273945E+02 0.18620093508E+02 0.19170823040E+02 0.19657466429E+02 0.20050670269E+02
 0.20289205419E+02 0.20286095114E+02 0.19970442344E+02 0.19301270851E+02 0.18282598745E+02
 0.16970672358E+02 0.15476633474E+02 0.13956452801E+02 0.12591765907E+02 0.11560542939E+02
 0.11005252952E+02 0.11005244929E+02 0.11560489874E+02 0.12591689200E+02 0.13956474959E+02
 0.16607790880E+02 0.17725775492E+02 0.18641870578E+02 0.19290974447E+02 0.19654076105E+02
 0.19752642229E+02 0.19639988783E+02 0.19385462183E+02 0.19037130364E+02 0.18620141722E+02
 0.18157106870E+02 0.17666692498E+02 0.17163237088E+02 0.16655753339E+02 0.16149975061E+02
 0.15648118275E+02 0.15152220652E+02 0.14667837930E+02 0.14205535466E+02 0.13780837340E+02
 0.13414194780E+02 0.13128863254E+02 0.12946930270E+02 0.12884361459E+02 0.12946967535E+02
 0.13128870570E+02 0.13414134898E+02 0.13780640341E+02 0.14205411714E+02 0.14668024404E+02
 0.15152331247E+02 0.15647962736E+02 0.16149975113E+02 0.16655832351E+02 0.17163188207E+02
 0.17666690264E+02 0.18157159688E+02 0.18620099496E+02 0.19037169249E+02 0.19385450088E+02
 0.19639982510E+02 0.19752728822E+02 0.19653969298E+02 0.19291116824E+02 0.18641806853E+02
 0.17725709065E+02 0.16607834788E+02 0.15396614017E+02 0.14230547465E+02 0.13258550841E+02
 0.12613406780E+02 0.12387451277E+02 0.12613419914E+02 0.13258627674E+02 0.14230649195E+02
 0.15396590369E+02 0.17036400917E+02 0.17824815403E+02 0.18425105842E+02 0.18808056673E+02
 0.18980193911E+02 0.18979243818E+02 0.18855603940E+02 0.18643116113E+02 0.18361818353E+02
 0.18031248130E+02 0.17666692498E+02 0.17279726017E+02 0.16876628334E+02 0.16460982990E+02
 0.16032579952E+02 0.15591733674E+02 0.15142501446E+02 0.14693819384E+02 0.14259792105E+02
 0.13861550672E+02 0.13525934225E+02 0.13281618505E+02 0.13152607009E+02 0.13152645821E+02
 0.13281681003E+02 0.13526087552E+02 0.13861655560E+02 0.14259761217E+02 0.14693536145E+02
 0.15142558389E+02 0.15591924209E+02 0.16032479986E+02 0.16460909594E+02 0.16876745862E+02
 0.17279643269E+02 0.17666707726E+02 0.18031249097E+02 0.18361827509E+02 0.18643083149E+02
 0.18855674543E+02 0.18979104464E+02 0.18980351671E+02 0.18807911050E+02 0.18425164470E+02
 0.17824884005E+02 0.17036361945E+02 0.16125878648E+02 0.15191142556E+02 0.14347032806E+02
 0.13706952804E+02 0.13361666565E+02 0.13361630330E+02 0.13706900792E+02 0.14346956143E+02
 0.15191035643E+02 0.16125930928E+02 0.16868136517E+02 0.17401430364E+02 0.17782143178E+02
 0.18007528609E+02 0.18101239955E+02 0.18094798653E+02 0.18008595945E+02 0.17858314062E+02
 0.17659981226E+02 0.17425452707E+02 0.17163237088E+02 0.16876628334E+02 0.16566345417E+02
 0.16229423006E+02 0.15863514715E+02 0.15470319848E+02 0.15055620930E+02 0.14630543512E+02
 0.14215029604E+02 0.13838364959E+02 0.13535066060E+02 0.13337600557E+02 0.13268975532E+02
 0.13337564892E+02 0.13535053839E+02 0.13838443517E+02 0.14215213177E+02 0.14630674132E+02
 0.15055386173E+02 0.15470223100E+02 0.15863752004E+02 0.16229346467E+02 0.16566260685E+02
 0.16876752563E+02 0.17163162226E+02 0.17425496333E+02 0.17659947727E+02 0.17858370706E+02
 0.18008507933E+02 0.18094949686E+02 0.18101096750E+02 0.18007628297E+02 0.17782163920E+02
 0.17401275803E+02 0.16868256276E+02 0.16216040224E+02 0.15506119574E+02 0.14820024109E+02
 0.14246510053E+02 0.13865229964E+02 0.13731555715E+02 0.13865284349E+02 0.14246554476E+02
 0.14820148906E+02 0.15506206598E+02 0.16215993515E+02 0.16251391391E+02 0.16615845682E+02
 0.16877728973E+02 0.17047503124E+02 0.17139634924E+02 0.17164562387E+02 0.17134536186E+02
 0.17061905264E+02 0.16955103633E+02 0.16819685556E+02 0.16655753339E+02 0.16460982990E+02
 0.16229423006E+02 0.15955507158E+02 0.15637764328E+02 0.15278025652E+02 0.14882862480E+02
 0.14469136830E+02 0.14066397272E+02 0.13713367074E+02 0.13450009243E+02 0.13309128278E+02
 0.13309102366E+02 0.13449932562E+02 0.13713234245E+02 0.14066369050E+02 0.14469263307E+02
 0.14883101989E+02 0.15277854279E+02 0.15637599002E+02 0.15955742338E+02 0.16229352009E+02
 0.16460900639E+02 0.16655858811E+02 0.16819588595E+02 0.16955177509E+02 0.17061832679E+02
 0.17134620208E+02 0.17164449745E+02 0.17139688943E+02 0.17047536357E+02 0.16877540153E+02
 0.16616124970E+02 0.16251259740E+02 0.15792057927E+02 0.15270497482E+02 0.14738493878E+02
 0.14259254589E+02 0.13896272318E+02 0.13700487257E+02 0.13700517866E+02 0.13896191645E+02
 0.14259192984E+02 0.14738319571E+02 0.15270452752E+02 0.15792189287E+02 0.15353013422E+02
 0.15637764518E+02 0.15863543991E+02 0.16032592225E+02 0.16149944707E+02 0.16224861825E+02
 0.16265981881E+02 0.16278765065E+02 0.16265997854E+02 0.16224854967E+02 0.16149975061E+02
 0.16032579952E+02 0.15863514715E+02 0.15637764328E+02 0.15353046050E+02 0.15010482397E+02
 0.14621811508E+02 0.14214168241E+02 0.13827721708E+02 0.13507997570E+02 0.13296656368E+02
 0.13222758640E+02 0.13296636500E+02 0.13507927141E+02 0.13827554345E+02 0.14214021782E+02
 0.14621864651E+02 0.15010749464E+02 0.15352923631E+02 0.15637588509E+02 0.15863758540E+02
 0.16032472590E+02 0.16149968337E+02 0.16224922207E+02 0.16265916415E+02 0.16278835027E+02
 0.16265916447E+02 0.16224922140E+02 0.16149968441E+02 0.16032472429E+02 0.15863758920E+02
 0.15637587566E+02 0.15352924870E+02 0.15010751402E+02 0.14621861839E+02 0.14214013527E+02
 0.13827551435E+02 0.13507923119E+02 0.13296645272E+02 0.13222755082E+02 0.13296646782E+02
 0.13508005050E+02 0.13827678297E+02 0.14214167167E+02 0.14621844295E+02 0.15010486088E+02
 0.14333651011E+02 0.14594703499E+02 0.14818793548E+02 0.15008553439E+02 0.15170165199E+02
 0.15308995676E+02 0.15428430113E+02 0.15528661817E+02 0.15604669427E+02 0.15648220210E+02
 0.15648118275E+02 0.15591733674E+02 0.15470319848E+02 0.15278025652E+02 0.15010482397E+02
 0.14672704904E+02 0.14286490332E+02 0.13890208020E+02 0.13531870537E+02 0.13259834226E+02
 0.13112975369E+02 0.13112986204E+02 0.13259868590E+02 0.13531889981E+02 0.13890068963E+02
 0.14286323937E+02 0.14672692185E+02 0.15010767757E+02 0.15277855535E+02 0.15470222365E+02
 0.15591929132E+02 0.15647971166E+02 0.15648266642E+02 0.15604695900E+02 0.15528605147E+02
 0.15428491281E+02 0.15308935338E+02 0.15170142556E+02 0.15008634062E+02 0.14818690725E+02
 0.14594701745E+02 0.14333864500E+02 0.14038905400E+02 0.13719571553E+02 0.13390689747E+02
 0.13074125084E+02 0.12798525185E+02 0.12593793108E+02 0.12484510007E+02 0.12484509037E+02
 0.12593771324E+02 0.12798410030E+02 0.13073964756E+02 0.13390580689E+02 0.13719745118E+02
 0.14039081620E+02 0.13283336646E+02 0.13542913830E+02 0.13785414454E+02 0.14014188914E+02
 0.14232393053E+02 0.14442138344E+02 0.14641357003E+02 0.14823799363E+02 0.14978888035E+02
 0.15093483872E+02 0.15152220652E+02 0.15142501446E+02 0.15055620930E+02 0.14882862480E+02
 0.14621811508E+02 0.14286490332E+02 0.13909907942E+02 0.13538918706E+02 0.13225120544E+02
 0.13015143992E+02 0.12941280216E+02 0.13015208028E+02 0.13225193966E+02 0.13538963262E+02
 0.13909816975E+02 0.14286309560E+02 0.14621829474E+02 0.14883119154E+02 0.15055384838E+02
 0.15142544031E+02 0.15152334936E+02 0.15093352221E+02 0.14978972326E+02 0.14823764486E+02
 0.14641359972E+02 0.14442149864E+02 0.14232445496E+02 0.14014110083E+02 0.13785485391E+02
 0.13542936457E+02 0.13283208868E+02 0.13005844412E+02 0.12715246078E+02 0.12421642675E+02
 0.12141063309E+02 0.11892617706E+02 0.11696157551E+02 0.11569725542E+02 0.11526045463E+02
 0.11569737709E+02 0.11696201947E+02 0.11892779829E+02 0.12141215267E+02 0.12421621494E+02
 0.12715028895E+02 0.13005849129E+02 0.12246756412E+02 0.12523853170E+02 0.12800682356E+02
 0.13079357827E+02 0.13360941174E+02 0.13642148505E+02 0.13916212533E+02 0.14171389074E+02
 0.14392840313E+02 0.14563787784E+02 0.14667837930E+02 0.14693819384E+02 0.14630543512E+02
 0.14469136830E+02 0.14214168241E+02 0.13890208020E+02 0.13538918706E+02 0.13211284246E+02
 0.12958107440E+02 0.12820172782E+02 0.12820214456E+02 0.12958184579E+02 0.13211418544E+02
 0.13538977972E+02 0.13890114167E+02 0.14213990967E+02 0.14469242806E+02 0.14630700910E+02
 0.14693542414E+02 0.14668018471E+02 0.14563731791E+02 0.14392828683E+02 0.14171427583E+02
 0.13916184209E+02 0.13642170993E+02 0.13360867578E+02 0.13079441462E+02 0.12800623511E+02
 0.12523841114E+02 0.12246823208E+02 0.11967911750E+02 0.11687999269E+02 0.11412108065E+02
 0.11149697841E+02 0.10913722009E+02 0.10719027365E+02 0.10579892561E+02 0.10507310941E+02
 0.10507319481E+02 0.10579853565E+02 0.10718948590E+02 0.10913528334E+02 0.11149646324E+02
 0.11412212006E+02 0.11688124088E+02 0.11967865312E+02 0.11263072278E+02 0.11570590102E+02
 0.11891421921E+02 0.12225714048E+02 0.12570422804E+02 0.12918677657E+02 0.13258850013E+02
 0.13575075103E+02 0.13850118691E+02 0.14064995570E+02 0.14205535466E+02 0.14259792105E+02
 0.14215029604E+02 0.14066397272E+02 0.13827721708E+02 0.13531870537E+02 0.13225120544E+02
 0.12958107440E+02 0.12776605093E+02 0.12712270641E+02 0.12776627715E+02 0.12958201366E+02
 0.13225263683E+02 0.13531913833E+02 0.13827611506E+02 0.14066249372E+02 0.14215259240E+02
 0.14259741933E+02 0.14205410889E+02 0.14065180329E+02 0.13849954450E+02 0.13575175511E+02
 0.13258788506E+02 0.12918711178E+02 0.12570458596E+02 0.12225671212E+02 0.11891443577E+02
 0.11570618927E+02 0.11263014558E+02 0.10967140024E+02 0.10682253290E+02 0.10409902944E+02
 0.10154948583E+02 0.99252679305E+01 0.97310690351E+01 0.95828293298E+01 0.94897246063E+01
 0.94579378168E+01 0.94897403612E+01 0.95828919754E+01 0.97311879928E+01 0.99254005008E+01
 0.10154921055E+02 0.10409813689E+02 0.10682190281E+02 0.10967172130E+02 0.10359966589E+02
 0.10706046915E+02 0.11074894780E+02 0.11464346956E+02 0.11868209095E+02 0.12275637319E+02
 0.12671498441E+02 0.13038098851E+02 0.13356119072E+02 0.13607920030E+02 0.13780837340E+02
 0.13861550672E+02 0.13838364959E+02 0.13713367074E+02 0.13507997570E+02 0.13259834226E+02
 0.13015143992E+02 0.12820172782E+02 0.12712270641E+02 0.12712304640E+02 0.12820239024E+02
 0.13015234636E+02 0.13259955770E+02 0.13508002254E+02 0.13713193827E+02 0.13838376425E+02
 0.13861734033E+02 0.13780622704E+02 0.13608032421E+02 0.13356125950E+02 0.13038041694E+02
 0.12671569995E+02 0.12275576455E+02 0.11868203252E+02 0.11464354007E+02 0.11074903993E+02
 0.10706001620E+02 0.10360025315E+02 0.10036610388E+02 0.97346940484E+01 0.94539120509E+01
 0.91960718903E+01 0.89652941563E+01 0.87679325873E+01 0.86111364463E+01 0.85019777682E+01
 0.84458825877E+01 0.84458905178E+01 0.85019205876E+01 0.86110628285E+01 0.87678202532E+01
 0.89652457110E+01 0.91960923031E+01 0.94539981887E+01 0.97347171196E+01 0.10036597286E+02
 0.95549290429E+01 0.99420790194E+01 0.10358449562E+02 0.10799354988E+02 0.11255425779E+02
 0.11713594618E+02 0.12156366303E+02 0.12565194275E+02 0.12920774041E+02 0.13207795092E+02
 0.13414194780E+02 0.13525934225E+02 0.13535066060E+02 0.13450009243E+02 0.13296656368E+02
 0.13112975369E+02 0.12941280216E+02 0.12820214456E+02 0.12776627715E+02 0.12820239024E+02
 0.12941347511E+02 0.13113119020E+02 0.13296715263E+02 0.13449934999E+02 0.13534925069E+02
 0.13526139962E+02 0.13414122884E+02 0.13207723181E+02 0.12920891531E+02 0.12565083079E+02
 0.12156436638E+02 0.11713547116E+02 0.11255504672E+02 0.10799298361E+02 0.10358477292E+02
 0.99420837617E+01 0.95549134429E+01 0.91982714070E+01 0.88715229859E+01 0.85736160256E+01
 0.83044678182E+01 0.80656888704E+01 0.78606560058E+01 0.76939196999E+01 0.75704143692E+01
 0.74944107051E+01 0.74687440954E+01 0.74944391203E+01 0.75704764308E+01 0.76940014414E+01
 0.78607035875E+01 0.80657449643E+01 0.83044191557E+01 0.85735680791E+01 0.88714887839E+01
 0.91983092818E+01 0.88545974894E+01 0.92821595853E+01 0.97427431830E+01 0.10229480939E+02
 0.10731452623E+02 0.11233275649E+02 0.11717228962E+02 0.12164716952E+02 0.12557660993E+02
 0.12883162171E+02 0.13128863254E+02 0.13281618505E+02 0.13337600557E+02 0.13309128278E+02
 0.13222758640E+02 0.13112986204E+02 0.13015208028E+02 0.12958184579E+02 0.12958201366E+02
 0.13015234636E+02 0.13113119020E+02 0.13222819972E+02 0.13309124029E+02 0.13337434802E+02
 0.13281699036E+02 0.13128954838E+02 0.12882986507E+02 0.12557824159E+02 0.12164634788E+02
 0.11717267518E+02 0.11233275273E+02 0.10731396772E+02 0.10229523031E+02 0.97427238884E+01
 0.92821580882E+01 0.88546045874E+01 0.84630427624E+01 0.81076625926E+01 0.77874124752E+01
 0.75012355203E+01 0.72491377273E+01 0.70324217944E+01 0.68536088196E+01 0.67157807693E+01
 0.66219302336E+01 0.65743469692E+01 0.65743391517E+01 0.66218767286E+01 0.67157324316E+01
 0.68535517079E+01 0.70323886387E+01 0.72490890105E+01 0.75012913012E+01 0.77874452837E+01
 0.81076905581E+01 0.84630071007E+01 0.82585943538E+01 0.87238735826E+01 0.92246168775E+01
 0.97525534263E+01 0.10295338266E+02 0.10837377360E+02 0.11360909570E+02 0.11848058113E+02
 0.12282641276E+02 0.12653085669E+02 0.12946930270E+02 0.13152607009E+02 0.13268975532E+02
 0.13309102366E+02 0.13296636500E+02 0.13259868590E+02 0.13225193966E+02 0.13211418544E+02
 0.13225263683E+02 0.13259955770E+02 0.13296715263E+02 0.13309124029E+02 0.13268839878E+02
 0.13152601443E+02 0.12947098054E+02 0.12652904332E+02 0.12282721399E+02 0.11848038521E+02
 0.11360878726E+02 0.10837406421E+02 0.10295357522E+02 0.97525505302E+01 0.92246048336E+01
 0.87238951177E+01 0.82585714155E+01 0.78329550625E+01 0.74480987088E+01 0.71032523809E+01
 0.67969403686E+01 0.65282009106E+01 0.62969433664E+01 0.61041797453E+01 0.59515255979E+01
 0.58408416869E+01 0.57737217457E+01 0.57512529707E+01 0.57737533501E+01 0.58408801543E+01
 0.59515631869E+01 0.61042216742E+01 0.62969788407E+01 0.65282284251E+01 0.67968979666E+01
 0.71032131211E+01 0.74480933435E+01 0.78329687607E+01 0.77622996537E+01 0.82627469568E+01
 0.88006339430E+01 0.93669105570E+01 0.99490686996E+01 0.10531127988E+02 0.11096367228E+02
 0.11627731147E+02 0.12110423729E+02 0.12533475819E+02 0.12884361459E+02 0.13152645821E+02
 0.13337564892E+02 0.13449932562E+02 0.13507927141E+02 0.13531889981E+02 0.13538963262E+02
 0.13538977972E+02 0.13531913833E+02 0.13508002254E+02 0.13449934999E+02 0.13337434802E+02
 0.13152601443E+02 0.12884538334E+02 0.12533329645E+02 0.12110494209E+02 0.11627754697E+02
 0.11096333028E+02 0.10531172317E+02 0.99489910625E+01 0.93669521131E+01 0.88006152403E+01
 0.82627536371E+01 0.77622988664E+01 0.73043913290E+01 0.68907779914E+01 0.65209884125E+01
 0.61934053200E+01 0.59064372437E+01 0.56590735685E+01 0.54512025223E+01 0.52833468625E+01
 0.51564022866E+01 0.50712394627E+01 0.50284948340E+01 0.50284775464E+01 0.50712174378E+01
 0.51563757551E+01 0.52833164006E+01 0.54511608270E+01 0.56590533245E+01 0.59064051597E+01
 0.61934587819E+01 0.65210078169E+01 0.68907932809E+01 0.73043638807E+01 0.73604726866E+01
 0.78947261148E+01 0.84688517377E+01 0.90735355979E+01 0.96961251394E+01 0.10321390624E+02
 0.10932961972E+02 0.11514484865E+02 0.12051779797E+02 0.12533454455E+02 0.12946967535E+02
 0.13281681003E+02 0.13535053839E+02 0.13713234245E+02 0.13827554345E+02 0.13890068963E+02
 0.13909816975E+02 0.13890114167E+02 0.13827611506E+02 0.13713193827E+02 0.13534925069E+02
 0.13281699036E+02 0.12947098054E+02 0.12533329645E+02 0.12051789391E+02 0.11514512696E+02
 0.10932902129E+02 0.10321428849E+02 0.96961410670E+01 0.90735430822E+01 0.84688373212E+01
 0.78947422375E+01 0.73604561018E+01 0.68714993393E+01 0.64299948458E+01 0.60356133792E+01
 0.56866122398E+01 0.53809239487E+01 0.51168498860E+01 0.48934142898E+01 0.47102965880E+01
 0.45675855638E+01 0.44655030376E+01 0.44041906073E+01 0.43837531002E+01 0.44041997416E+01
 0.44655171550E+01 0.45676060551E+01 0.47103298767E+01 0.48934418028E+01 0.51168744593E+01
 0.53809411955E+01 0.56865700351E+01 0.60355868796E+01 0.64299969318E+01 0.68715069548E+01
 0.70490750629E+01 0.76178535934E+01 0.82295879898E+01 0.88750189319E+01 0.95417618890E+01
 0.10214577915E+02 0.10877585899E+02 0.11514496087E+02 0.12110427082E+02 0.12653005859E+02
 0.13128870570E+02 0.13526087552E+02 0.13838443517E+02 0.14066369050E+02 0.14214021782E+02
 0.14286323937E+02 0.14286309560E+02 0.14213990967E+02 0.14066249372E+02 0.13838376425E+02
 0.13526139962E+02 0.13128954838E+02 0.12652904332E+02 0.12110494209E+02 0.11514512696E+02
 0.10877565879E+02 0.10214610213E+02 0.95416977648E+01 0.88750395863E+01 0.82295812353E+01
 0.76178558514E+01 0.70490781452E+01 0.65288513151E+01 0.60594115616E+01 0.56403921718E+01
 0.52698379715E+01 0.49452219624E+01 0.46642257122E+01 0.44251391016E+01 0.42269145210E+01
 0.40689627912E+01 0.39509211187E+01 0.38724650402E+01 0.38333380452E+01 0.38333370267E+01
 0.38724683428E+01 0.39509044953E+01 0.40689463089E+01 0.42268848670E+01 0.44251144148E+01
 0.46642068650E+01 0.49452044878E+01 0.52698842850E+01 0.56404076933E+01 0.60594142672E+01
 0.65288373340E+01 0.68263672929E+01 0.74321462187E+01 0.80846879270E+01 0.87746994035E+01
 0.94896653970E+01 0.10214598313E+02 0.10932927520E+02 0.11627772256E+02 0.12282694940E+02
 0.12883055933E+02 0.13414134898E+02 0.13861655560E+02 0.14215213177E+02 0.14469263307E+02
 0.14621864651E+02 0.14672692185E+02 0.14621829474E+02 0.14469242806E+02 0.14215259240E+02
 0.13861734033E+02 0.13414122884E+02 0.12882986507E+02 0.12282721399E+02 0.11627754697E+02
 0.10932902129E+02 0.10214610213E+02 0.94896944014E+01 0.87747055303E+01 0.80846777444E+01
 0.74321530623E+01 0.68263572100E+01 0.62729135052E+01 0.57740372471E+01 0.53292288735E+01
 0.49362327330E+01 0.45920359821E+01 0.42936895884E+01 0.40387747874E+01 0.38255472851E+01
 0.36527816770E+01 0.35195729800E+01 0.34251325005E+01 0.33688036769E+01 0.33500732893E+01
 0.33687952083E+01 0.34251327785E+01 0.35195860545E+01 0.36527953473E+01 0.38255749273E+01
 0.40387945138E+01 0.42937072608E+01 0.45920486324E+01 0.49361893907E+01 0.53292144100E+01
 0.57740408776E+01 0.62729186604E+01 0.66922485974E+01 0.73387942313E+01 0.80360997273E+01
 0.87747039438E+01 0.95417431888E+01 0.10321421862E+02 0.11096312356E+02 0.11848049921E+02
 0.12557771795E+02 0.13207722058E+02 0.13780640341E+02 0.14259761217E+02 0.14630674132E+02
 0.14883101989E+02 0.15010749464E+02 0.15010767757E+02 0.14883119154E+02 0.14630700910E+02
 0.14259741933E+02 0.13780622704E+02 0.13207723181E+02 0.12557824159E+02 0.11848038521E+02
 0.11096333028E+02 0.10321428849E+02 0.95416977648E+01 0.87747055303E+01 0.80361021187E+01
 0.73387952035E+01 0.66922539688E+01 0.61022331881E+01 0.55709878033E+01 0.50979001398E+01
 0.46804265616E+01 0.43150664347E+01 0.39982386294E+01 0.37268000664E+01 0.34982899736E+01
 0.33108268202E+01 0.31629499975E+01 0.30533975555E+01 0.29810956821E+01 0.29451740573E+01
 0.29451846102E+01 0.29810963884E+01 0.30534021990E+01 0.31629357011E+01 0.33108176940E+01
 0.34982624661E+01 0.37267853223E+01 0.39982222308E+01 0.43150568022E+01 0.46804699775E+01
 0.50979097004E+01 0.55709845678E+01 0.61022281313E+01 0.66474364055E+01 0.73388004753E+01
 0.80846791329E+01 0.88750377341E+01 0.96960964728E+01 0.10531180946E+02 0.11360896293E+02
 0.12164642615E+02 0.12920917617E+02 0.13608045507E+02 0.14205411714E+02 0.14693536145E+02
 0.15055386173E+02 0.15277854279E+02 0.15352923631E+02 0.15277855535E+02 0.15055384838E+02
 0.14693542414E+02 0.14205410889E+02 0.13608032421E+02 0.12920891531E+02 0.12164634788E+02
 0.11360878726E+02 0.10531172317E+02 0.96961410670E+01 0.88750395863E+01 0.80846777444E+01
 0.73387952035E+01 0.66474325749E+01 0.60167406485E+01 0.54491936008E+01 0.49442137471E+01
 0.44990757469E+01 0.41098890690E+01 0.37724845597E+01 0.34830190161E+01 0.32382848201E+01
 0.30357079164E+01 0.28732138747E+01 0.27490337575E+01 0.26616414866E+01 0.26097715933E+01
 0.25925887680E+01 0.26097688064E+01 0.26616366002E+01 0.27490313281E+01 0.28732237614E+01
 0.30357179750E+01 0.32383083485E+01 0.34830336305E+01 0.37724972097E+01 0.41098992363E+01
 0.44990301583E+01 0.49442104689E+01 0.54491954588E+01 0.60167450030E+01 0.66922485857E+01
 0.74321463007E+01 0.82295804418E+01 0.90735460037E+01 0.99490439492E+01 0.10837379177E+02