ws2                                     
   1.2448260000000000     
    -0.000000    2.275731    2.275731
     2.275731   -0.000000    2.275731
     2.275731    2.275731    0.000000
   Na   Cl
     1     1
Direct
  0.000000  0.000000  0.000000
  0.500000  0.500000  0.500000

   60   60   60
 0.57452823035E+00 0.56773623076E+00 0.54797942692E+00 0.51710539898E+00 0.47813863175E+00
 0.43516273362E+00 0.39309402594E+00 0.35728782006E+00 0.33300832253E+00 0.32478020020E+00
 0.33571401587E+00 0.36697237274E+00 0.41751154384E+00 0.48423456114E+00 0.56255903894E+00
 0.64724255765E+00 0.73329507406E+00 0.81661998911E+00 0.89486987505E+00 0.96768257145E+00
 0.10352935201E+01 0.10980134380E+01 0.11558950710E+01 0.12086966740E+01 0.12558539398E+01
 0.12967168071E+01 0.13306715670E+01 0.13572769723E+01 0.13763072423E+01 0.13877135117E+01
 0.13915104969E+01 0.13877135117E+01 0.13763072423E+01 0.13572769723E+01 0.13306715670E+01
 0.12967168071E+01 0.12558539398E+01 0.12086966740E+01 0.11558950710E+01 0.10980134380E+01
 0.10352935201E+01 0.96768257145E+00 0.89486987505E+00 0.81661998911E+00 0.73329507406E+00
 0.64724255765E+00 0.56255903894E+00 0.48423456114E+00 0.41751154384E+00 0.36697237274E+00
 0.33571401587E+00 0.32478020020E+00 0.33300832253E+00 0.35728782006E+00 0.39309402594E+00
 0.43516273362E+00 0.47813863175E+00 0.51710539898E+00 0.54797942692E+00 0.56773623076E+00
 0.56773623076E+00 0.55446227761E+00 0.52915164904E+00 0.49424576561E+00 0.45331265763E+00
 0.41087444617E+00 0.37209313106E+00 0.34231248199E+00 0.32646798583E+00 0.32839978571E+00
 0.35025817502E+00 0.39206943869E+00 0.45170803728E+00 0.52523985386E+00 0.60767081506E+00
 0.69380915831E+00 0.77908904518E+00 0.86019004174E+00 0.93591912093E+00 0.10063559128E+01
 0.10717899476E+01 0.11324209857E+01 0.11881391518E+01 0.12385033352E+01 0.12828849478E+01
 0.13206139895E+01 0.13511414127E+01 0.13741464461E+01 0.13894845314E+01 0.13971418732E+01
 0.13971391091E+01 0.13894850696E+01 0.13741481623E+01 0.13511419510E+01 0.13206081687E+01
 0.12828858109E+01 0.12385054109E+01 0.11881355726E+01 0.11324252109E+01 0.10717877785E+01
 0.10063566281E+01 0.93591806432E+00 0.86019070805E+00 0.77908922081E+00 0.69380932785E+00
 0.60767042211E+00 0.52524009669E+00 0.45170771721E+00 0.39206996250E+00 0.35025773520E+00
 0.32840046671E+00 0.32646740916E+00 0.34231327991E+00 0.37209323783E+00 0.41087461731E+00
 0.45331387943E+00 0.49424487244E+00 0.52915121790E+00 0.55446290887E+00 0.56773672486E+00
 0.54797942692E+00 0.52915164904E+00 0.49981984359E+00 0.46299055374E+00 0.42269827223E+00
 0.38376127340E+00 0.35139433049E+00 0.33068685008E+00 0.32595515316E+00 0.34012164727E+00
 0.37417836559E+00 0.42698861559E+00 0.49542975067E+00 0.57498747679E+00 0.66054002715E+00
 0.74725735112E+00 0.83119604925E+00 0.91020323643E+00 0.98397470486E+00 0.10527131382E+01
 0.11166653424E+01 0.11758303218E+01 0.12298818797E+01 0.12782324597E+01 0.13201721001E+01
 0.13550568381E+01 0.13824351150E+01 0.14020378040E+01 0.14137959950E+01 0.14177090469E+01
 0.14137975290E+01 0.14020344367E+01 0.13824315039E+01 0.13550606585E+01 0.13201764353E+01
 0.12782291298E+01 0.12298834740E+01 0.11758298078E+01 0.11166635303E+01 0.10527146346E+01
 0.98397501978E+00 0.91020342471E+00 0.83119513652E+00 0.74725686870E+00 0.66054006893E+00
 0.57498760811E+00 0.49543017274E+00 0.42698861849E+00 0.37417856445E+00 0.34012125951E+00
 0.32595560621E+00 0.33068656435E+00 0.35139501059E+00 0.38376142150E+00 0.42269782289E+00
 0.46299092771E+00 0.49981988179E+00 0.52915187050E+00 0.54798028538E+00 0.55446290887E+00
 0.51710539898E+00 0.49424576561E+00 0.46299055374E+00 0.42683599398E+00 0.39015439558E+00
 0.35787193661E+00 0.33501292308E+00 0.32612534963E+00 0.33465944016E+00 0.36239904155E+00
 0.40911996603E+00 0.47257628046E+00 0.54889500122E+00 0.63327201176E+00 0.72081762076E+00
 0.80726186289E+00 0.88965483162E+00 0.96707804328E+00 0.10395845734E+01 0.11073678087E+01
 0.11705024980E+01 0.12287392154E+01 0.12815451387E+01 0.13281771906E+01 0.13679138546E+01
 0.14001466306E+01 0.14244819199E+01 0.14407435934E+01 0.14488752867E+01 0.14488759995E+01
 0.14407430916E+01 0.14244848991E+01 0.14001438570E+01 0.13679099184E+01 0.13281741544E+01
 0.12815446597E+01 0.12287419987E+01 0.11705012132E+01 0.11073705783E+01 0.10395821895E+01
 0.96707829422E+00 0.88965465991E+00 0.80726272411E+00 0.72081782127E+00 0.63327208049E+00
 0.54889454469E+00 0.47257613005E+00 0.40911953218E+00 0.36239920596E+00 0.33465899012E+00
 0.32612569203E+00 0.33501251929E+00 0.35787279492E+00 0.39015458214E+00 0.42683702161E+00
 0.46299037137E+00 0.49424511371E+00 0.51710592658E+00 0.52915187050E+00 0.52915121790E+00
 0.47813863175E+00 0.45331265763E+00 0.42269827223E+00 0.39015439558E+00 0.36020858201E+00
 0.33765123271E+00 0.32704773524E+00 0.33213446605E+00 0.35527501628E+00 0.39701377022E+00
 0.45595309555E+00 0.52894844837E+00 0.61169505433E+00 0.69945734908E+00 0.78785961639E+00
 0.87344341220E+00 0.95460354199E+00 0.10311423270E+01 0.11031462482E+01 0.11706954083E+01
 0.12335851029E+01 0.12913215284E+01 0.13431463472E+01 0.13882588961E+01 0.14259009571E+01
 0.14555355391E+01 0.14768332436E+01 0.14896376126E+01 0.14939046198E+01 0.14896345906E+01
 0.14768320700E+01 0.14555363178E+01 0.14259016760E+01 0.13882602188E+01 0.13431531129E+01
 0.12913179853E+01 0.12335848087E+01 0.11706962438E+01 0.11031445878E+01 0.10311440104E+01
 0.95460297496E+00 0.87344335632E+00 0.78785880690E+00 0.69945710320E+00 0.61169547557E+00
 0.52894871740E+00 0.45595320052E+00 0.39701345748E+00 0.35527458543E+00 0.33213420533E+00
 0.32704708298E+00 0.33765150170E+00 0.36020766135E+00 0.39015439071E+00 0.42269878023E+00
 0.45331286210E+00 0.47813924534E+00 0.49424511371E+00 0.49981988179E+00 0.49424487244E+00
 0.43516273362E+00 0.41087444617E+00 0.38376127340E+00 0.35787193661E+00 0.33765123271E+00
 0.32749772197E+00 0.33122933957E+00 0.35156204222E+00 0.38963476983E+00 0.44478985422E+00
 0.51462980228E+00 0.59544873697E+00 0.68285980071E+00 0.77255802396E+00 0.86086285696E+00
 0.94558135465E+00 0.10261774972E+01 0.11026014862E+01 0.11748702284E+01 0.12427904802E+01
 0.13058804251E+01 0.13633708027E+01 0.14143751301E+01 0.14580006594E+01 0.14935435079E+01
 0.15204938711E+01 0.15385596226E+01 0.15476173545E+01 0.15476191330E+01 0.15385626578E+01
 0.15204895595E+01 0.14935428747E+01 0.14580016261E+01 0.14143696823E+01 0.13633684412E+01
 0.13058822458E+01 0.12427921978E+01 0.11748687374E+01 0.11026040607E+01 0.10261757143E+01
 0.94558194493E+00 0.86086242315E+00 0.77255901439E+00 0.68285980189E+00 0.59544893372E+00
 0.51462921407E+00 0.44478993119E+00 0.38963415725E+00 0.35156200556E+00 0.33122917796E+00
 0.32749751998E+00 0.33765200004E+00 0.35787286548E+00 0.38376146066E+00 0.41087509733E+00
 0.43516282072E+00 0.45331286210E+00 0.46299037137E+00 0.46299092771E+00 0.45331387943E+00
 0.39309402594E+00 0.37209313106E+00 0.35139433049E+00 0.33501292308E+00 0.32704773524E+00
 0.33122933957E+00 0.35042194706E+00 0.38616842130E+00 0.43840499733E+00 0.50542906495E+00
 0.58416936468E+00 0.67072319404E+00 0.76101239641E+00 0.85136194904E+00 0.93919123010E+00
 0.10236081904E+01 0.11044089814E+01 0.11815092610E+01 0.12546870425E+01 0.13234464773E+01
 0.13869909349E+01 0.14443522474E+01 0.14945077928E+01 0.15365781447E+01 0.15698509434E+01
 0.15938708583E+01 0.16083697103E+01 0.16132139100E+01 0.16083675093E+01 0.15938721894E+01
 0.15698543956E+01 0.15365766822E+01 0.14945111218E+01 0.14443539338E+01 0.13869962788E+01
 0.13234440505E+01 0.12546865901E+01 0.11815098264E+01 0.11044063752E+01 0.10236096074E+01
 0.93919102924E+00 0.85136212734E+00 0.76101216927E+00 0.67072284451E+00 0.58416971529E+00
 0.50542899590E+00 0.43840534564E+00 0.38616844316E+00 0.35042156967E+00 0.33122972966E+00
 0.32704682090E+00 0.33501277638E+00 0.35139474926E+00 0.37209286559E+00 0.39309307106E+00
 0.41087509733E+00 0.42269878023E+00 0.42683702161E+00 0.42269782289E+00 0.41087461731E+00
 0.35728782006E+00 0.34231248199E+00 0.33068685008E+00 0.32612534963E+00 0.33213446605E+00
 0.35156204222E+00 0.38616842130E+00 0.43633313361E+00 0.50094087348E+00 0.57754605732E+00
 0.66279077862E+00 0.75295844171E+00 0.84453966036E+00 0.93479647240E+00 0.10225372187E+01
 0.11074132719E+01 0.11892204024E+01 0.12676824168E+01 0.13422576512E+01 0.14121129701E+01
 0.14761923294E+01 0.15333509585E+01 0.15825195451E+01 0.16227821985E+01 0.16534788187E+01
 0.16741543807E+01 0.16845451996E+01 0.16845455500E+01 0.16741524585E+01 0.16534786985E+01
 0.16227812910E+01 0.15825174864E+01 0.15333525651E+01 0.14761887393E+01 0.14121088733E+01
 0.13422593815E+01 0.12676839394E+01 0.11892197916E+01 0.11074159897E+01 0.10225352771E+01
 0.93479691029E+00 0.84453906119E+00 0.75295951904E+00 0.66279084383E+00 0.57754633484E+00
 0.50094013928E+00 0.43633268600E+00 0.38616838632E+00 0.35156134474E+00 0.33213538037E+00
 0.32612572110E+00 0.33068617996E+00 0.34231360807E+00 0.35728768116E+00 0.37209286559E+00
 0.38376146066E+00 0.39015439071E+00 0.39015458214E+00 0.38376142150E+00 0.37209323783E+00
 0.33300832253E+00 0.32646798583E+00 0.32595515316E+00 0.33465944016E+00 0.35527501628E+00
 0.38963476983E+00 0.43840499733E+00 0.50094087348E+00 0.57536288855E+00 0.65887466699E+00
 0.74820228905E+00 0.84012665583E+00 0.93194120327E+00 0.10222801668E+01 0.11106711815E+01
 0.11968064779E+01 0.12803352568E+01 0.13606612611E+01 0.14368970751E+01 0.15079008216E+01
 0.15723991287E+01 0.16291391621E+01 0.16769953664E+01 0.17150782732E+01 0.17427085709E+01
 0.17594509658E+01 0.17650628300E+01 0.17594551430E+01 0.17427104602E+01 0.17150772155E+01
 0.16770015497E+01 0.16291376671E+01 0.15724003703E+01 0.15079037023E+01 0.14369022845E+01
 0.13606581697E+01 0.12803334700E+01 0.11968065504E+01 0.11106688843E+01 0.10222819172E+01
 0.93194154497E+00 0.84012692361E+00 0.74820198153E+00 0.65887396827E+00 0.57536311412E+00
 0.50094141516E+00 0.43840467082E+00 0.38963576570E+00 0.35527343501E+00 0.33465935840E+00
 0.32595523314E+00 0.32646744612E+00 0.33300826572E+00 0.34231360807E+00 0.35139474926E+00
 0.35787286548E+00 0.36020766135E+00 0.35787279492E+00 0.35139501059E+00 0.34231327991E+00
 0.32478020020E+00 0.32839978571E+00 0.34012164727E+00 0.36239904155E+00 0.39701377022E+00
 0.44478985422E+00 0.50542906495E+00 0.57754605732E+00 0.65887466699E+00 0.74663036318E+00
 0.83795883186E+00 0.93033491752E+00 0.10223550736E+01 0.11134747921E+01 0.12033079121E+01
 0.12914353823E+01 0.13772026143E+01 0.14596626502E+01 0.15375865774E+01 0.16095769807E+01
 0.16742057912E+01 0.17301367178E+01 0.17762332426E+01 0.18115694265E+01 0.18354913472E+01
 0.18475583967E+01 0.18475547464E+01 0.18354885879E+01 0.18115705698E+01 0.17762309543E+01
 0.17301354615E+01 0.16742052113E+01 0.16095767385E+01 0.15375821188E+01 0.14596578451E+01
 0.13772053331E+01 0.12914373000E+01 0.12033073770E+01 0.11134775253E+01 0.10223527844E+01
 0.93033528677E+00 0.83795805048E+00 0.74663127593E+00 0.65887487162E+00 0.57754554985E+00
 0.50542931373E+00 0.44478845274E+00 0.39701523416E+00 0.36239916112E+00 0.34012186394E+00
 0.32840079687E+00 0.32478075966E+00 0.32646744612E+00 0.33068617996E+00 0.33501277638E+00
 0.33765200004E+00 0.33765150170E+00 0.33501251929E+00 0.33068656435E+00 0.32646740916E+00
 0.33571401587E+00 0.35025817502E+00 0.37417836559E+00 0.40911996603E+00 0.45595309555E+00
 0.51462980228E+00 0.58416936468E+00 0.66279077862E+00 0.74820228905E+00 0.83795883186E+00
 0.92981582344E+00 0.10224629726E+01 0.11153405055E+01 0.12080210768E+01 0.13000342332E+01
 0.13906781354E+01 0.14789498743E+01 0.15635436905E+01 0.16429483419E+01 0.17155726898E+01
 0.17798734430E+01 0.18344648797E+01 0.18781636136E+01 0.19100547018E+01 0.19294548394E+01
 0.19359661197E+01 0.19294579141E+01 0.19100561330E+01 0.18781677902E+01 0.18344634544E+01
 0.17798775386E+01 0.17155718445E+01 0.16429489238E+01 0.15635463640E+01 0.14789542034E+01
 0.13906744077E+01 0.13000325720E+01 0.12080212051E+01 0.11153385897E+01 0.10224648158E+01
 0.92981615160E+00 0.83795906609E+00 0.74820142513E+00 0.66279074524E+00 0.58416842896E+00
 0.51463155614E+00 0.45595172244E+00 0.40912022624E+00 0.37417844595E+00 0.35025764721E+00
 0.33571335375E+00 0.32840079687E+00 0.32595523314E+00 0.32612572110E+00 0.32704682090E+00
 0.32749751998E+00 0.32704708298E+00 0.32612569203E+00 0.32595560621E+00 0.32840046671E+00
 0.36697237274E+00 0.39206943869E+00 0.42698861559E+00 0.47257628046E+00 0.52894844837E+00
 0.59544873697E+00 0.67072319404E+00 0.75295844171E+00 0.84012665583E+00 0.93033491752E+00
 0.10224629726E+01 0.11159929116E+01 0.12104893068E+01 0.13054594496E+01 0.14001716836E+01
 0.14935854064E+01 0.15843344881E+01 0.16708122837E+01 0.17512822170E+01 0.18240096704E+01
 0.18873711434E+01 0.19399204134E+01 0.19804555715E+01 0.20080169598E+01 0.20219679907E+01
 0.20219689733E+01 0.20080163576E+01 0.19804502106E+01 0.19399206349E+01 0.18873701084E+01
 0.18240056976E+01 0.17512812695E+01 0.16708116020E+01 0.15843307782E+01 0.14935805065E+01
 0.14001752487E+01 0.13054615163E+01 0.12104891923E+01 0.11159953350E+01 0.10224607402E+01
 0.93033440266E+00 0.84012636308E+00 0.75295788523E+00 0.67072506093E+00 0.59544669948E+00
 0.52895002249E+00 0.47257589437E+00 0.42698847923E+00 0.39207022016E+00 0.36697365041E+00
 0.35025764721E+00 0.34012186394E+00 0.33465935840E+00 0.33213538037E+00 0.33122972966E+00
 0.33122917796E+00 0.33213420533E+00 0.33465899012E+00 0.34012125951E+00 0.35025773520E+00
 0.41751154384E+00 0.45170803728E+00 0.49542975067E+00 0.54889500122E+00 0.61169505433E+00
 0.68285980071E+00 0.76101239641E+00 0.84453966036E+00 0.93194120327E+00 0.10223550736E+01
 0.11153405055E+01 0.12104893068E+01 0.13073112171E+01 0.14050716188E+01 0.15027129674E+01
 0.15988364554E+01 0.16917640946E+01 0.17796451956E+01 0.18605781002E+01 0.19327230986E+01
 0.19943752441E+01 0.20440413125E+01 0.20804653969E+01 0.21027214362E+01 0.21102036354E+01
 0.21027185843E+01 0.20804701968E+01 0.20440424556E+01 0.19943771086E+01 0.19327226804E+01
 0.18605823845E+01 0.17796444452E+01 0.16917639302E+01 0.15988400098E+01 0.15027179816E+01
 0.14050678355E+01 0.13073094486E+01 0.12104894909E+01 0.11153379125E+01 0.10223577190E+01
 0.93194051779E+00 0.84454160257E+00 0.76100987655E+00 0.68286135025E+00 0.61169335848E+00
 0.54889515468E+00 0.49543096851E+00 0.45170757340E+00 0.41751085041E+00 0.39207022016E+00
 0.37417844595E+00 0.36239916112E+00 0.35527343501E+00 0.35156134474E+00 0.35042156967E+00
 0.35156200556E+00 0.35527458543E+00 0.36239920596E+00 0.37417856445E+00 0.39206996250E+00
 0.48423456114E+00 0.52523985386E+00 0.57498747679E+00 0.63327201176E+00 0.69945734908E+00
 0.77255802396E+00 0.85136194904E+00 0.93479647240E+00 0.10222801668E+01 0.11134747921E+01
 0.12080210768E+01 0.13054594496E+01 0.14050716188E+01 0.15058138741E+01 0.16062813419E+01
 0.17047631587E+01 0.17993279984E+01 0.18879446562E+01 0.19685833020E+01 0.20393047273E+01
 0.20983338597E+01 0.21441134497E+01 0.21753917539E+01 0.21912580612E+01 0.21912596445E+01
 0.21753900299E+01 0.21441125507E+01 0.20983298486E+01 0.20393026744E+01 0.19685821955E+01
 0.18879398053E+01 0.17993284399E+01 0.17047627091E+01 0.16062778450E+01 0.15058091505E+01
 0.14050769405E+01 0.13054610626E+01 0.12080219296E+01 0.11134763694E+01 0.10222786885E+01
 0.93479391737E+00 0.85136320342E+00 0.77255638579E+00 0.69945929144E+00 0.63327315771E+00
 0.57498562677E+00 0.52524048537E+00 0.48423516283E+00 0.45170757340E+00 0.42698847923E+00
 0.40912022624E+00 0.39701523416E+00 0.38963576570E+00 0.38616838632E+00 0.38616844316E+00
 0.38963415725E+00 0.39701345748E+00 0.40911953218E+00 0.42698861849E+00 0.45170771721E+00
 0.56255903894E+00 0.60767081506E+00 0.66054002715E+00 0.72081762076E+00 0.78785961639E+00
 0.86086285696E+00 0.93919123010E+00 0.10225372187E+01 0.11106711815E+01 0.12033079121E+01
 0.13000342332E+01 0.14001716836E+01 0.15027129674E+01 0.16062813419E+01 0.17091681587E+01
 0.18094063012E+01 0.19048743834E+01 0.19933966368E+01 0.20728314115E+01 0.21411492760E+01
 0.21964957234E+01 0.22372883014E+01 0.22622835654E+01 0.22707118097E+01 0.22622862521E+01
 0.22372854149E+01 0.21964977501E+01 0.21411520715E+01 0.20728337535E+01 0.19933972221E+01
 0.19048798907E+01 0.18094072466E+01 0.17091693525E+01 0.16062867823E+01 0.15027172600E+01
 0.14001663712E+01 0.13000321604E+01 0.12033086630E+01 0.11106667589E+01 0.10225424776E+01
 0.93918986435E+00 0.86086542618E+00 0.78785902934E+00 0.72081442991E+00 0.66054244445E+00
 0.60766996531E+00 0.56255843770E+00 0.52524048537E+00 0.49543096851E+00 0.47257589437E+00
 0.45595172244E+00 0.44478845274E+00 0.43840467082E+00 0.43633268600E+00 0.43840534564E+00
 0.44478993119E+00 0.45595320052E+00 0.47257613005E+00 0.49543017274E+00 0.52524009669E+00
 0.64724255765E+00 0.69380915831E+00 0.74725735112E+00 0.80726186289E+00 0.87344341220E+00
 0.94558135465E+00 0.10236081904E+01 0.11074132719E+01 0.11968064779E+01 0.12914353823E+01
 0.13906781354E+01 0.14935854064E+01 0.15988364554E+01 0.17047631587E+01 0.18094063012E+01
 0.19106037728E+01 0.20060817078E+01 0.20935400803E+01 0.21707296876E+01 0.22355256299E+01
 0.22860274924E+01 0.23206507867E+01 0.23382675105E+01 0.23382624983E+01 0.23206519813E+01
 0.22860273972E+01 0.22355245020E+01 0.21707253904E+01 0.20935378065E+01 0.20060804904E+01
 0.19105963317E+01 0.18094045585E+01 0.17047610922E+01 0.15988336185E+01 0.14935851332E+01
 0.13906857020E+01 0.12914328557E+01 0.11968105427E+01 0.11074155554E+01 0.10236041191E+01
 0.94558206730E+00 0.87343929137E+00 0.80726739494E+00 0.74725443672E+00 0.69381044922E+00
 0.64724352746E+00 0.60766996531E+00 0.57498562677E+00 0.54889515468E+00 0.52895002249E+00
 0.51463155614E+00 0.50542931373E+00 0.50094141516E+00 0.50094013928E+00 0.50542899590E+00
 0.51462921407E+00 0.52894871740E+00 0.54889454469E+00 0.57498760811E+00 0.60767042211E+00
 0.73329507406E+00 0.77908904518E+00 0.83119604925E+00 0.88965483162E+00 0.95460354199E+00
 0.10261774972E+01 0.11044089814E+01 0.11892204024E+01 0.12803352568E+01 0.13772026143E+01
 0.14789498743E+01 0.15843344881E+01 0.16917640946E+01 0.17993279984E+01 0.19048743834E+01
 0.20060817078E+01 0.21005433284E+01 0.21858365950E+01 0.22596080277E+01 0.23196670987E+01
 0.23640984511E+01 0.23914047556E+01 0.24006126368E+01 0.23914051535E+01 0.23640997013E+01
 0.23196654330E+01 0.22596088690E+01 0.21858404493E+01 0.21005475948E+01 0.20060867098E+01
 0.19048871190E+01 0.17993325901E+01 0.16917619197E+01 0.15843277182E+01 0.14789465524E+01
 0.13772075612E+01 0.12803384371E+01 0.11892081786E+01 0.11044138367E+01 0.10261785626E+01
 0.95460743661E+00 0.88965350702E+00 0.83119588111E+00 0.77909083906E+00 0.73329049085E+00
 0.69381044922E+00 0.66054244445E+00 0.63327315771E+00 0.61169335848E+00 0.59544669948E+00
 0.58416842896E+00 0.57754554985E+00 0.57536311412E+00 0.57754633484E+00 0.58416971529E+00
 0.59544893372E+00 0.61169547557E+00 0.63327208049E+00 0.66054006893E+00 0.69380932785E+00
 0.81661998911E+00 0.86019004174E+00 0.91020323643E+00 0.96707804328E+00 0.10311423270E+01
 0.11026014862E+01 0.11815092610E+01 0.12676824168E+01 0.13606612611E+01 0.14596626502E+01
 0.15635436905E+01 0.16708122837E+01 0.17796451956E+01 0.18879446562E+01 0.19933966368E+01
 0.20935400803E+01 0.21858365950E+01 0.22677493537E+01 0.23368424853E+01 0.23908960203E+01
 0.24280630745E+01 0.24469955525E+01 0.24470008911E+01 0.24280592330E+01 0.23908957613E+01
 0.23368436155E+01 0.22677529117E+01 0.21858343432E+01 0.20935377161E+01 0.19933931649E+01
 0.18879389188E+01 0.17796585463E+01 0.16708399457E+01 0.15635550099E+01 0.14596409754E+01
 0.13606473915E+01 0.12677086136E+01 0.11815123804E+01 0.11025946839E+01 0.10311467018E+01
 0.96707068691E+00 0.91020665385E+00 0.86018375693E+00 0.81662589006E+00 0.77909083906E+00
 0.74725443672E+00 0.72081442991E+00 0.69945929144E+00 0.68286135025E+00 0.67072506093E+00
 0.66279074524E+00 0.65887487162E+00 0.65887396827E+00 0.66279084383E+00 0.67072284451E+00
 0.68285980189E+00 0.69945710320E+00 0.72081782127E+00 0.74725686870E+00 0.77908922081E+00
 0.89486987505E+00 0.93591912093E+00 0.98397470486E+00 0.10395845734E+01 0.11031462482E+01
 0.11748702284E+01 0.12546870425E+01 0.13422576512E+01 0.14368970751E+01 0.15375865774E+01
 0.16429483419E+01 0.17512822170E+01 0.18605781002E+01 0.19685833020E+01 0.20728314115E+01
 0.21707296876E+01 0.22596080277E+01 0.23368424853E+01 0.23999505167E+01 0.24467725497E+01
 0.24755921600E+01 0.24853303267E+01 0.24755897072E+01 0.24467752032E+01 0.23999538270E+01
 0.23368387308E+01 0.22595967748E+01 0.21707178006E+01 0.20728133491E+01 0.19685565163E+01
 0.18605513975E+01 0.17512475059E+01 0.16429416876E+01 0.15376269382E+01 0.14369272666E+01
 0.13422241643E+01 0.12546777839E+01 0.11748869506E+01 0.11031269947E+01 0.10395971613E+01
 0.98397186309E+00 0.93592378123E+00 0.89486895433E+00 0.86018375693E+00 0.83119588111E+00
 0.80726739494E+00 0.78785902934E+00 0.77255638579E+00 0.76100987655E+00 0.75295788523E+00
 0.74820142513E+00 0.74663127593E+00 0.74820198153E+00 0.75295951904E+00 0.76101216927E+00
 0.77255901439E+00 0.78785880690E+00 0.80726272411E+00 0.83119513652E+00 0.86019070805E+00
 0.96768257145E+00 0.10063559128E+01 0.10527131382E+01 0.11073678087E+01 0.11706954083E+01
 0.12427904802E+01 0.13234464773E+01 0.14121129701E+01 0.15079008216E+01 0.16095769807E+01
 0.17155726898E+01 0.18240096704E+01 0.19327230986E+01 0.20393047273E+01 0.21411492760E+01
 0.22355256299E+01 0.23196670987E+01 0.23908960203E+01 0.24467725497E+01 0.24852580126E+01
 0.25048881177E+01 0.25048847975E+01 0.24852623843E+01 0.24467694984E+01 0.23908871984E+01
 0.23196617300E+01 0.22355341762E+01 0.21411657587E+01 0.20393284656E+01 0.19327422867E+01
 0.18239920097E+01 0.17155387321E+01 0.16095473997E+01 0.15079108336E+01 0.14121405833E+01
 0.13234354750E+01 0.12427827833E+01 0.11707339797E+01 0.11073528404E+01 0.10527159854E+01
 0.10063497874E+01 0.96767643860E+00 0.93592378123E+00 0.91020665385E+00 0.88965350702E+00
 0.87343929137E+00 0.86086542618E+00 0.85136320342E+00 0.84454160257E+00 0.84012636308E+00
 0.83795906609E+00 0.83795805048E+00 0.84012692361E+00 0.84453906119E+00 0.85136212734E+00
 0.86086242315E+00 0.87344335632E+00 0.88965465991E+00 0.91020342471E+00 0.93591806432E+00
 0.10352935201E+01 0.10717899476E+01 0.11166653424E+01 0.11705024980E+01 0.12335851029E+01
 0.13058804251E+01 0.13869909349E+01 0.14761923294E+01 0.15723991287E+01 0.16742057912E+01
 0.17798734430E+01 0.18873711434E+01 0.19943752441E+01 0.20983338597E+01 0.21964957234E+01
 0.22860274924E+01 0.23640984511E+01 0.24280630745E+01 0.24755921600E+01 0.25048881177E+01
 0.25147800091E+01 0.25048910756E+01 0.24755871569E+01 0.24280575890E+01 0.23641086953E+01
 0.22860577584E+01 0.21965288099E+01 0.20983776904E+01 0.19944212735E+01 0.18874148903E+01
 0.17799087251E+01 0.16741763947E+01 0.15723352522E+01 0.14762044119E+01 0.13870634832E+01
 0.13058670276E+01 0.12335359426E+01 0.11705241121E+01 0.11166350645E+01 0.10717948114E+01
 0.10352967263E+01 0.10063497874E+01 0.98397186309E+00 0.96707068691E+00 0.95460743661E+00
 0.94558206730E+00 0.93918986435E+00 0.93479391737E+00 0.93194051779E+00 0.93033440266E+00
 0.92981615160E+00 0.93033528677E+00 0.93194154497E+00 0.93479691029E+00 0.93919102924E+00
 0.94558194493E+00 0.95460297496E+00 0.96707829422E+00 0.98397501978E+00 0.10063566281E+01
 0.10980134380E+01 0.11324209857E+01 0.11758303218E+01 0.12287392154E+01 0.12913215284E+01
 0.13633708027E+01 0.14443522474E+01 0.15333509585E+01 0.16291391621E+01 0.17301367178E+01
 0.18344648797E+01 0.19399204134E+01 0.20440413125E+01 0.21441134497E+01 0.22372883014E+01
 0.23206507867E+01 0.23914047556E+01 0.24469955525E+01 0.24853303267E+01 0.25048847975E+01
 0.25048910756E+01 0.24853214175E+01 0.24469971234E+01 0.23914210011E+01 0.23206801378E+01
 0.22372962846E+01 0.21441254631E+01 0.20440504145E+01 0.19399641190E+01 0.18345370732E+01
 0.17301755385E+01 0.16291303253E+01 0.15333098305E+01 0.14443346231E+01 0.13634059390E+01
 0.12913066441E+01 0.12287251883E+01 0.11758921768E+01 0.11324146204E+01 0.10980224767E+01
 0.10717948114E+01 0.10527159854E+01 0.10395971613E+01 0.10311467018E+01 0.10261785626E+01
 0.10236041191E+01 0.10225424776E+01 0.10222786885E+01 0.10223577190E+01 0.10224607402E+01
 0.10224648158E+01 0.10223527844E+01 0.10222819172E+01 0.10225352771E+01 0.10236096074E+01
 0.10261757143E+01 0.10311440104E+01 0.10395821895E+01 0.10527146346E+01 0.10717877785E+01
 0.11558950710E+01 0.11881391518E+01 0.12298818797E+01 0.12815451387E+01 0.13431463472E+01
 0.14143751301E+01 0.14945077928E+01 0.15825195451E+01 0.16769953664E+01 0.17762332426E+01
 0.18781636136E+01 0.19804555715E+01 0.20804653969E+01 0.21753917539E+01 0.22622835654E+01
 0.23382675105E+01 0.24006126368E+01 0.24470008911E+01 0.24755897072E+01 0.24852623843E+01
 0.24755871569E+01 0.24469971234E+01 0.24006329291E+01 0.23382876383E+01 0.22622742331E+01
 0.21753756400E+01 0.20804410954E+01 0.19804597238E+01 0.18782006978E+01 0.17762918400E+01
 0.16770799695E+01 0.15825096764E+01 0.14944140454E+01 0.14143777589E+01 0.13432505650E+01
 0.12815305812E+01 0.12298357162E+01 0.11881457548E+01 0.11558271082E+01 0.11324146204E+01
 0.11166350645E+01 0.11073528404E+01 0.11031269947E+01 0.11025946839E+01 0.11044138367E+01
 0.11074155554E+01 0.11106667589E+01 0.11134763694E+01 0.11153379125E+01 0.11159953350E+01
 0.11153385897E+01 0.11134775253E+01 0.11106688843E+01 0.11074159897E+01 0.11044063752E+01
 0.11026040607E+01 0.11031445878E+01 0.11073705783E+01 0.11166635303E+01 0.11324252109E+01
 0.12086966740E+01 0.12385033352E+01 0.12782324597E+01 0.13281771906E+01 0.13882588961E+01
 0.14580006594E+01 0.15365781447E+01 0.16227821985E+01 0.17150782732E+01 0.18115694265E+01
 0.19100547018E+01 0.20080169598E+01 0.21027214362E+01 0.21912580612E+01 0.22707118097E+01
 0.23382624983E+01 0.23914051535E+01 0.24280592330E+01 0.24467752032E+01 0.24467694984E+01
 0.24280575890E+01 0.23914210011E+01 0.23382876383E+01 0.22706899198E+01 0.21912324799E+01
 0.21026661757E+01 0.20079889165E+01 0.19100344711E+01 0.18116054812E+01 0.17151876580E+01
 0.16228290765E+01 0.15365256904E+01 0.14579689445E+01 0.13882980488E+01 0.13281977164E+01
 0.12781331351E+01 0.12384988172E+01 0.12087483333E+01 0.11881457548E+01 0.11758921768E+01
 0.11705241121E+01 0.11707339797E+01 0.11748869506E+01 0.11815123804E+01 0.11892081786E+01
 0.11968105427E+01 0.12033086630E+01 0.12080219296E+01 0.12104894909E+01 0.12104891923E+01
 0.12080212051E+01 0.12033073770E+01 0.11968065504E+01 0.11892197916E+01 0.11815098264E+01
 0.11748687374E+01 0.11706962438E+01 0.11705012132E+01 0.11758298078E+01 0.11881355726E+01
 0.12558539398E+01 0.12828849478E+01 0.13201721001E+01 0.13679138546E+01 0.14259009571E+01
 0.14935435079E+01 0.15698509434E+01 0.16534788187E+01 0.17427085709E+01 0.18354913472E+01
 0.19294548394E+01 0.20219679907E+01 0.21102036354E+01 0.21912596445E+01 0.22622862521E+01
 0.23206519813E+01 0.23640997013E+01 0.23908957613E+01 0.23999538270E+01 0.23908871984E+01
 0.23641086953E+01 0.23206801378E+01 0.22622742331E+01 0.21912324799E+01 0.21101448919E+01
 0.20219238902E+01 0.19294105744E+01 0.18354948148E+01 0.17427978374E+01 0.16535389913E+01
 0.15699038692E+01 0.14935147884E+01 0.14258198396E+01 0.13679231975E+01 0.13202162253E+01
 0.12828654552E+01 0.12559346557E+01 0.12384988172E+01 0.12298357162E+01 0.12287251883E+01
 0.12335359426E+01 0.12427827833E+01 0.12546777839E+01 0.12677086136E+01 0.12803384371E+01
 0.12914328557E+01 0.13000321604E+01 0.13054610626E+01 0.13073094486E+01 0.13054615163E+01
 0.13000325720E+01 0.12914373000E+01 0.12803334700E+01 0.12676839394E+01 0.12546865901E+01
 0.12427921978E+01 0.12335848087E+01 0.12287419987E+01 0.12298834740E+01 0.12385054109E+01
 0.12967168071E+01 0.13206139895E+01 0.13550568381E+01 0.14001466306E+01 0.14555355391E+01
 0.15204938711E+01 0.15938708583E+01 0.16741543807E+01 0.17594509658E+01 0.18475583967E+01
 0.19359661197E+01 0.20219689733E+01 0.21027185843E+01 0.21753900299E+01 0.22372854149E+01
 0.22860273972E+01 0.23196654330E+01 0.23368436155E+01 0.23368387308E+01 0.23196617300E+01
 0.22860577584E+01 0.22372962846E+01 0.21753756400E+01 0.21026661757E+01 0.20219238902E+01
 0.19359102572E+01 0.18475415069E+01 0.17595067694E+01 0.16742077412E+01 0.15939961554E+01
 0.15204917363E+01 0.14553858525E+01 0.14001337730E+01 0.13552000668E+01 0.13205968954E+01
 0.12966349787E+01 0.12828654552E+01 0.12781331351E+01 0.12815305812E+01 0.12913066441E+01
 0.13058670276E+01 0.13234354750E+01 0.13422241643E+01 0.13606473915E+01 0.13772075612E+01
 0.13906857020E+01 0.14001663712E+01 0.14050769405E+01 0.14050678355E+01 0.14001752487E+01
 0.13906744077E+01 0.13772053331E+01 0.13606581697E+01 0.13422593815E+01 0.13234440505E+01
 0.13058822458E+01 0.12913179853E+01 0.12815446597E+01 0.12782291298E+01 0.12828858109E+01
 0.13306715670E+01 0.13511414127E+01 0.13824351150E+01 0.14244819199E+01 0.14768332436E+01
 0.15385596226E+01 0.16083697103E+01 0.16845451996E+01 0.17650628300E+01 0.18475547464E+01
 0.19294579141E+01 0.20080163576E+01 0.20804701968E+01 0.21441125507E+01 0.21964977501E+01
 0.22355245020E+01 0.22596088690E+01 0.22677529117E+01 0.22595967748E+01 0.22355341762E+01
 0.21965288099E+01 0.21441254631E+01 0.20804410954E+01 0.20079889165E+01 0.19294105744E+01
 0.18475415069E+01 0.17651073895E+01 0.16845947847E+01 0.16085271209E+01 0.15385756864E+01
 0.14766902004E+01 0.14244611981E+01 0.13825545219E+01 0.13511323447E+01 0.13305095229E+01
 0.13205968954E+01 0.13202162253E+01 0.13281977164E+01 0.13432505650E+01 0.13634059390E+01
 0.13870634832E+01 0.14121405833E+01 0.14369272666E+01 0.14596409754E+01 0.14789465524E+01
 0.14935851332E+01 0.15027172600E+01 0.15058091505E+01 0.15027179816E+01 0.14935805065E+01
 0.14789542034E+01 0.14596578451E+01 0.14369022845E+01 0.14121088733E+01 0.13869962788E+01
 0.13633684412E+01 0.13431531129E+01 0.13281741544E+01 0.13201764353E+01 0.13206081687E+01
 0.13572769723E+01 0.13741464461E+01 0.14020378040E+01 0.14407435934E+01 0.14896376126E+01
 0.15476173545E+01 0.16132139100E+01 0.16845455500E+01 0.17594551430E+01 0.18354885879E+01