ws2                                     
   5.4299999999999997     
     0.000000    0.503541    0.503541
     0.503541    0.000000    0.503541
     0.503541    0.503541    0.000000
   Si
     1
Direct
  0.000000  0.000000  0.000000

   56   56   56
 -.63034603318E+01 -.57441097143E+01 -.41353407956E+01 -.16709950269E+01 0.13610740009E+01
 0.46253049841E+01 0.77852850291E+01 0.10548668488E+02 0.12695032653E+02 0.14096132522E+02
 0.14716263196E+02 0.14608821714E+02 0.13897834360E+02 0.12759819213E+02 0.11394447821E+02
 0.99925041440E+01 0.86559026696E+01 0.74265497256E+01 0.63345276594E+01 0.53931137074E+01
 0.46032196037E+01 0.39550811307E+01 0.34339908292E+01 0.30232497875E+01 0.27076415731E+01
 0.24744101619E+01 0.23141498007E+01 0.22203991399E+01 0.21895572251E+01 0.22203991399E+01
 0.23141498007E+01 0.24744101619E+01 0.27076415731E+01 0.30232497875E+01 0.34339908292E+01
 0.39550811307E+01 0.46032196037E+01 0.53931137074E+01 0.63345276594E+01 0.74265497256E+01
 0.86559026696E+01 0.99925041440E+01 0.11394447821E+02 0.12759819213E+02 0.13897834360E+02
 0.14608821714E+02 0.14716263196E+02 0.14096132522E+02 0.12695032653E+02 0.10548668488E+02
 0.77852850291E+01 0.46253049841E+01 0.13610740009E+01 -.16709950269E+01 -.41353407956E+01
 -.57441097143E+01 -.57441097143E+01 -.46603743299E+01 -.26253947678E+01 0.11824565073E+00
 0.32566532113E+01 0.64523657121E+01 0.93907867550E+01 0.11815497239E+02 0.13554122217E+02
 0.14525964333E+02 0.14742677274E+02 0.14294610406E+02 0.13335303479E+02 0.12053847600E+02
 0.10652283046E+02 0.92801738042E+01 0.79968690478E+01 0.68380283946E+01 0.58245745278E+01
 0.49633849880E+01 0.42490830915E+01 0.36691079959E+01 0.32071842270E+01 0.28473160847E+01
 0.25753679309E+01 0.23803952315E+01 0.22544942977E+01 0.21927335684E+01 0.21927397222E+01
 0.22544880958E+01 0.23804014220E+01 0.25753616529E+01 0.28473224339E+01 0.32071778101E+01
 0.36691145924E+01 0.42490763658E+01 0.49633919384E+01 0.58245672418E+01 0.68380360084E+01
 0.79968613865E+01 0.92801812238E+01 0.10652274948E+02 0.12053859511E+02 0.13335285178E+02
 0.14294628042E+02 0.14742666459E+02 0.14526004572E+02 0.13554087073E+02 0.11815556239E+02
 0.93907277040E+01 0.64524455523E+01 0.32566697220E+01 0.11823717289E+00 -.26253228995E+01
 -.46604526559E+01 -.57441883253E+01 -.41353407956E+01 -.26253947678E+01 -.31448295278E+00
 0.25238521575E+01 0.55713250524E+01 0.85088839230E+01 0.11058745903E+02 0.13013175130E+02
 0.14251583910E+02 0.14743512912E+02 0.14543412288E+02 0.13774434105E+02 0.12609031151E+02
 0.11241933311E+02 0.98532553978E+01 0.85331830835E+01 0.73215172061E+01 0.62467614431E+01
 0.53212242678E+01 0.45450024062E+01 0.39081873934E+01 0.33960411144E+01 0.29922160888E+01
 0.26817367458E+01 0.24522272577E+01 0.22944418402E+01 0.22021471136E+01 0.21717585595E+01
 0.22021470656E+01 0.22944418712E+01 0.24522271448E+01 0.26817368558E+01 0.29922159571E+01
 0.33960413191E+01 0.39081872276E+01 0.45450026393E+01 0.53212240291E+01 0.62467616554E+01
 0.73215165580E+01 0.85331836609E+01 0.98532573792E+01 0.11241927461E+02 0.12609028813E+02
 0.13774453693E+02 0.14543439417E+02 0.14743508486E+02 0.14251600282E+02 0.13013151235E+02
 0.11058808248E+02 0.85088612403E+01 0.55713789916E+01 0.25238536209E+01 -.31457836129E+00
 -.26253844718E+01 -.41352603937E+01 -.46604526559E+01 -.16709950269E+01 0.11824565073E+00
 0.25238521575E+01 0.52633486242E+01 0.80326970045E+01 0.10548479301E+02 0.12581217439E+02
 0.13977763815E+02 0.14670423736E+02 0.14676596511E+02 0.14086854241E+02 0.13049702728E+02
 0.11745147437E+02 0.10361066819E+02 0.90205250793E+01 0.77715944795E+01 0.66479912440E+01
 0.56675365569E+01 0.48357440531E+01 0.41460763976E+01 0.35860774505E+01 0.31396683582E+01
 0.27916187021E+01 0.25283024128E+01 0.23394146364E+01 0.22173457231E+01 0.21574703015E+01
 0.21574657353E+01 0.22173502766E+01 0.23394100786E+01 0.25283069220E+01 0.27916141878E+01
 0.31396728249E+01 0.35860730467E+01 0.41460808121E+01 0.48357397574E+01 0.56675408244E+01
 0.66479873614E+01 0.77715982437E+01 0.90205205103E+01 0.10361073467E+02 0.11745142616E+02
 0.13049705639E+02 0.14086825540E+02 0.14676592443E+02 0.14670416792E+02 0.13977790659E+02
 0.12581191303E+02 0.10548513923E+02 0.80326681169E+01 0.52634330670E+01 0.25238507699E+01
 0.11828085560E+00 -.16710602203E+01 -.26253844718E+01 -.26253228995E+01 0.13610740009E+01
 0.32566532113E+01 0.55713250524E+01 0.80326970045E+01 0.10368457452E+02 0.12342171079E+02
 0.13779149760E+02 0.14581836585E+02 0.14733221875E+02 0.14291601304E+02 0.13376975589E+02
 0.12150310812E+02 0.10791411996E+02 0.94458973833E+01 0.81755394951E+01 0.70167018152E+01
 0.59926628395E+01 0.51135683598E+01 0.43769495310E+01 0.37729430401E+01 0.32865400053E+01
 0.29027196889E+01 0.26069847252E+01 0.23882846653E+01 0.22376090171E+01 0.21495849874E+01
 0.21204595767E+01 0.21495849542E+01 0.22376091477E+01 0.23882845014E+01 0.26069849282E+01
 0.29027193533E+01 0.32865403631E+01 0.37729425870E+01 0.43769501802E+01 0.51135676855E+01
 0.59926634757E+01 0.70167009780E+01 0.81755412977E+01 0.94458926268E+01 0.10791414533E+02
 0.12150321391E+02 0.13376995042E+02 0.14291602365E+02 0.14733223468E+02 0.14581800435E+02
 0.13779135720E+02 0.12342162467E+02 0.10368410123E+02 0.80327114902E+01 0.55712370428E+01
 0.32566275171E+01 0.13611299401E+01 0.11828085560E+00 -.31457836129E+00 0.11823717289E+00
 0.46253049841E+01 0.64523657121E+01 0.85088839230E+01 0.10548479301E+02 0.12342171079E+02
 0.13706972977E+02 0.14524553885E+02 0.14749959950E+02 0.14411238943E+02 0.13599290164E+02
 0.12452352801E+02 0.11134345093E+02 0.97986094590E+01 0.85219558347E+01 0.73420563493E+01
 0.62870204868E+01 0.53704497275E+01 0.45945663240E+01 0.39517691145E+01 0.34293487934E+01
 0.30123091105E+01 0.26864485186E+01 0.24395280023E+01 0.22620915433E+01 0.21473558864E+01
 0.20910162248E+01 0.20910275076E+01 0.21473446549E+01 0.22621029234E+01 0.24395165792E+01
 0.26864600050E+01 0.30122973542E+01 0.34293606653E+01 0.39517569721E+01 0.45945789280E+01
 0.53704370684E+01 0.62870337494E+01 0.73420413283E+01 0.85219755623E+01 0.97985874564E+01
 0.11134357412E+02 0.12452320806E+02 0.13599315039E+02 0.14411197675E+02 0.14749980662E+02
 0.14524513460E+02 0.13706973167E+02 0.12342171297E+02 0.10548465682E+02 0.85089559754E+01
 0.64524739641E+01 0.46252820456E+01 0.32566275171E+01 0.25238507699E+01 0.25238536209E+01
 0.32566697220E+01 0.77852850291E+01 0.93907867550E+01 0.11058745903E+02 0.12581217439E+02
 0.13779149760E+02 0.14524553885E+02 0.14752394009E+02 0.14465433849E+02 0.13726990073E+02
 0.12651452953E+02 0.11382748608E+02 0.10070378491E+02 0.88011583351E+01 0.76145987946E+01
 0.65414492539E+01 0.55987149695E+01 0.47923330589E+01 0.41176375209E+01 0.35640758175E+01
 0.31176157546E+01 0.27643647557E+01 0.24916443461E+01 0.22894391716E+01 0.21500525789E+01
 0.20684409676E+01 0.20415246792E+01 0.20684415328E+01 0.21500516512E+01 0.22894407537E+01
 0.24916422295E+01 0.27643673543E+01 0.31176123436E+01 0.35640798433E+01 0.41176326986E+01
 0.47923387347E+01 0.55987084017E+01 0.65414578939E+01 0.76145847374E+01 0.88011735178E+01
 0.10070370435E+02 0.11382781566E+02 0.12651435758E+02 0.13727008377E+02 0.14465409040E+02
 0.14752434239E+02 0.14524553447E+02 0.13779119551E+02 0.12581254959E+02 0.11058694723E+02
 0.93907386896E+01 0.77853197707E+01 0.64524739641E+01 0.55712370428E+01 0.52634330670E+01
 0.55713789916E+01 0.64524455523E+01 0.10548668488E+02 0.11815497239E+02 0.13013175130E+02
 0.13977763815E+02 0.14581836585E+02 0.14749959950E+02 0.14465433849E+02 0.13768542335E+02
 0.12749994903E+02 0.11532906660E+02 0.10254927075E+02 0.90058281202E+01 0.78262173049E+01
 0.67480992262E+01 0.57910504294E+01 0.49640799502E+01 0.42654118223E+01 0.36867626955E+01
 0.32155169725E+01 0.28384046186E+01 0.25427966849E+01 0.23182696327E+01 0.21565914560E+01
 0.20519292221E+01 0.20005157183E+01 0.20005055793E+01 0.20519395572E+01 0.21565812110E+01
 0.23182801614E+01 0.25427858852E+01 0.28384155561E+01 0.32155054130E+01 0.36867746923E+01
 0.42653994306E+01 0.49640933075E+01 0.57910355960E+01 0.67481189804E+01 0.78261959686E+01
 0.90058393539E+01 0.10254894180E+02 0.11532935598E+02 0.12749957723E+02 0.13768577230E+02
 0.14465376174E+02 0.14749916518E+02 0.14581866551E+02 0.13977699209E+02 0.13013241915E+02
 0.11815576457E+02 0.10548581127E+02 0.93907386896E+01 0.85089559754E+01 0.80327114902E+01
 0.80326681169E+01 0.85088612403E+01 0.93907277040E+01 0.12695032653E+02 0.13554122217E+02
 0.14251583910E+02 0.14670423736E+02 0.14733221875E+02 0.14411238943E+02 0.13726990073E+02
 0.12749994903E+02 0.11583080974E+02 0.10348173224E+02 0.91306683631E+01 0.79707518170E+01
 0.69004998796E+01 0.59411849306E+01 0.51041621977E+01 0.43902692280E+01 0.37935125708E+01
 0.33028893420E+01 0.29061829531E+01 0.25910508474E+01 0.23471332914E+01 0.21657076852E+01
 0.20405773739E+01 0.19671345931E+01 0.19430024589E+01 0.19671338181E+01 0.20405791904E+01
 0.21657051469E+01 0.23471368318E+01 0.25910461993E+01 0.29061885185E+01 0.33028823525E+01
 0.37935207124E+01 0.43902597437E+01 0.51041742993E+01 0.59411674569E+01 0.69005204961E+01
 0.79707401917E+01 0.91307014791E+01 0.10348147824E+02 0.11583118729E+02 0.12749963358E+02
 0.13727006704E+02 0.14411291144E+02 0.14733169676E+02 0.14670505413E+02 0.14251477475E+02
 0.13554060588E+02 0.12695116551E+02 0.11815576457E+02 0.11058694723E+02 0.10548465682E+02
 0.10368410123E+02 0.10548513923E+02 0.11058808248E+02 0.11815556239E+02 0.14096132522E+02
 0.14525964333E+02 0.14743512912E+02 0.14676596511E+02 0.14291601304E+02 0.13599290164E+02
 0.12651452953E+02 0.11532906660E+02 0.10348173224E+02 0.91726411817E+01 0.80440854818E+01
 0.69938900870E+01 0.60441513889E+01 0.52078169157E+01 0.44879898810E+01 0.38807026475E+01
 0.33768420979E+01 0.29653142671E+01 0.26346017825E+01 0.23744625264E+01 0.21762348933E+01
 0.20332465748E+01 0.19405685374E+01 0.18950207216E+01 0.18950241648E+01 0.19405650695E+01
 0.20332503236E+01 0.21762309350E+01 0.23744669033E+01 0.26345967979E+01 0.29653198574E+01
 0.33768357168E+01 0.38807100035E+01 0.44879809056E+01 0.52078312219E+01 0.60441345948E+01
 0.69938979041E+01 0.80440578439E+01 0.91726616547E+01 0.10348151445E+02 0.11532921219E+02
 0.12651457082E+02 0.13599217155E+02 0.14291680451E+02 0.14676445718E+02 0.14743641038E+02
 0.14526034518E+02 0.14096107260E+02 0.13554060588E+02 0.13013241915E+02 0.12581254959E+02
 0.12342171297E+02 0.12342162467E+02 0.12581191303E+02 0.13013151235E+02 0.13554087073E+02
 0.14716263196E+02 0.14742677274E+02 0.14543412288E+02 0.14086854241E+02 0.13376975589E+02
 0.12452352801E+02 0.11382748608E+02 0.10254927075E+02 0.91306683631E+01 0.80440854818E+01
 0.70253196813E+01 0.60965009651E+01 0.52714900104E+01 0.45551382402E+01 0.39453185942E+01
 0.34347602407E+01 0.30137259806E+01 0.26716846329E+01 0.23989101424E+01 0.21869235051E+01
 0.20289715109E+01 0.19197895336E+01 0.18557651427E+01 0.18346454468E+01 0.18557661354E+01
 0.19197874307E+01 0.20289746393E+01 0.21869192612E+01 0.23989156773E+01 0.26716778726E+01
 0.30137340310E+01 0.34347507614E+01 0.39453299852E+01 0.45551216961E+01 0.52715097789E+01
 0.60964910074E+01 0.70253476241E+01 0.80440656032E+01 0.91306829181E+01 0.10254926394E+02
 0.11382726856E+02 0.12452462969E+02 0.13376843060E+02 0.14087030936E+02 0.14543333395E+02
 0.14742600569E+02 0.14716314560E+02 0.14526034518E+02 0.14251477475E+02 0.13977699209E+02
 0.13779119551E+02 0.13706973167E+02 0.13779135720E+02 0.13977790659E+02 0.14251600282E+02
 0.14526004572E+02 0.14608821714E+02 0.14294610406E+02 0.13774434105E+02 0.13049702728E+02
 0.12150310812E+02 0.11134345093E+02 0.10070378491E+02 0.90058281202E+01 0.79707518170E+01
 0.69938900870E+01 0.60965009651E+01 0.52929925979E+01 0.45893093998E+01 0.39850592208E+01
 0.34745693691E+01 0.30496492326E+01 0.27008384527E+01 0.24192411034E+01 0.21967459069E+01
 0.20267816240E+01 0.19039316605E+01 0.18243010155E+01 0.17851288436E+01 0.17851470261E+01
 0.18242826994E+01 0.19039496996E+01 0.20267635629E+01 0.21967639017E+01 0.24192235017E+01
 0.27008562663E+01 0.30496314724E+01 0.34745867034E+01 0.39850447023E+01 0.45893224630E+01
 0.52929668994E+01 0.60965139388E+01 0.69938650156E+01 0.79707914581E+01 0.90057632939E+01
 0.10070478476E+02 0.11134164004E+02 0.12150507897E+02 0.13049521375E+02 0.13774511373E+02
 0.14294688012E+02 0.14608780366E+02 0.14742600569E+02 0.14743641038E+02 0.14670505413E+02
 0.14581866551E+02 0.14524553447E+02 0.14524513460E+02 0.14581800435E+02 0.14670416792E+02
 0.14743508486E+02 0.14742666459E+02 0.13897834360E+02 0.13335303479E+02 0.12609031151E+02
 0.11745147437E+02 0.10791411996E+02 0.97986094590E+01 0.88011583351E+01 0.78262173049E+01
 0.69004998796E+01 0.60441513889E+01 0.52714900104E+01 0.45893093998E+01 0.39984524582E+01
 0.34948638051E+01 0.30717295311E+01 0.27209444574E+01 0.24344514523E+01 0.22048674398E+01
 0.20258671844E+01 0.18922170653E+01 0.17997860109E+01 0.17455652933E+01 0.17276956045E+01
 0.17455660908E+01 0.17997840646E+01 0.18922197303E+01 0.20258634763E+01 0.22048723450E+01
 0.24344454575E+01 0.27209522545E+01 0.30717200630E+01 0.34948721472E+01 0.39984426499E+01
 0.45893345902E+01 0.52714724792E+01 0.60441853064E+01 0.69004444810E+01 0.78263018726E+01
 0.88010323365E+01 0.97988044679E+01 0.10791229769E+02 0.11745277395E+02 0.12609049203E+02
 0.13335123567E+02 0.13897973882E+02 0.14294688012E+02 0.14543333395E+02 0.14676445718E+02
 0.14733169676E+02 0.14749916518E+02 0.14752434239E+02 0.14749980662E+02 0.14733223468E+02
 0.14676592443E+02 0.14543439417E+02 0.14294628042E+02 0.12759819213E+02 0.12053847600E+02
 0.11241933311E+02 0.10361066819E+02 0.94458973833E+01 0.85219558347E+01 0.76145987946E+01
 0.67480992262E+01 0.59411849306E+01 0.52078169157E+01 0.45551382402E+01 0.39850592208E+01
 0.34948638051E+01 0.30791847890E+01 0.27311863726E+01 0.24438692370E+01 0.22106170989E+01
 0.20256478400E+01 0.18839725190E+01 0.17815226963E+01 0.17150741280E+01 0.16824319044E+01
 0.16824250155E+01 0.17150810107E+01 0.17815154734E+01 0.18839799320E+01 0.20256399800E+01
 0.22106258187E+01 0.24438595052E+01 0.27311974731E+01 0.30791746809E+01 0.34948739581E+01
 0.39850332993E+01 0.45551566639E+01 0.52077841332E+01 0.59412391342E+01 0.67480245465E+01
 0.76147019503E+01 0.85218152551E+01 0.94459689264E+01 0.10361100692E+02 0.11241713166E+02
 0.12054176286E+02 0.12759665574E+02 0.13335123567E+02 0.13774511373E+02 0.14087030936E+02
 0.14291680451E+02 0.14411291144E+02 0.14465376174E+02 0.14465409040E+02 0.14411197675E+02
 0.14291602365E+02 0.14086825540E+02 0.13774453693E+02 0.13335285178E+02 0.11394447821E+02
 0.10652283046E+02 0.98532553978E+01 0.90205250793E+01 0.81755394951E+01 0.73420563493E+01
 0.65414492539E+01 0.57910504294E+01 0.51041621977E+01 0.44879898810E+01 0.39453185942E+01
 0.34745693691E+01 0.30717295311E+01 0.27311863726E+01 0.24470567158E+01 0.22135936683E+01
 0.20256810421E+01 0.18787374390E+01 0.17689054353E+01 0.16929270316E+01 0.16483880712E+01
 0.16337072165E+01 0.16483880132E+01 0.16929272088E+01 0.17689051646E+01 0.18787377929E+01
 0.20256802271E+01 0.22135950330E+01 0.24470545972E+01 0.27311867566E+01 0.30717305130E+01
 0.34745822575E+01 0.39453140490E+01 0.44880038679E+01 0.51041308771E+01 0.57910906186E+01
 0.65413973521E+01 0.73421181541E+01 0.81755769641E+01 0.90203808159E+01 0.98535140559E+01
 0.10652069210E+02 0.11394341381E+02 0.12054176286E+02 0.12609049203E+02 0.13049521375E+02
 0.13376843060E+02 0.13599217155E+02 0.13727006704E+02 0.13768577230E+02 0.13727008377E+02
 0.13599315039E+02 0.13376995042E+02 0.13049705639E+02 0.12609028813E+02 0.12053859511E+02
 0.99925041440E+01 0.92801738042E+01 0.85331830835E+01 0.77715944795E+01 0.70167018152E+01
 0.62870204868E+01 0.55987149695E+01 0.49640799502E+01 0.43902692280E+01 0.38807026475E+01
 0.34347602407E+01 0.30496492326E+01 0.27209444574E+01 0.24438692370E+01 0.22135936683E+01
 0.20257182636E+01 0.18761983056E+01 0.17615067041E+01 0.16785195850E+01 0.16247356083E+01
 0.15983123201E+01 0.15983179623E+01 0.16247300488E+01 0.16785254129E+01 0.17615007801E+01
 0.18762045628E+01 0.20257110669E+01 0.22136016639E+01 0.24438628272E+01 0.27209495426E+01
 0.30496307926E+01 0.34347713971E+01 0.38806839306E+01 0.43903049253E+01 0.49640407860E+01
 0.55987619628E+01 0.62869722962E+01 0.70166586024E+01 0.77717033355E+01 0.85330504763E+01
 0.92801790218E+01 0.99927526885E+01 0.10652069210E+02 0.11241713166E+02 0.11745277395E+02
 0.12150507897E+02 0.12452462969E+02 0.12651457082E+02 0.12749963358E+02 0.12749957723E+02
 0.12651435758E+02 0.12452320806E+02 0.12150321391E+02 0.11745142616E+02 0.11241927461E+02
 0.10652274948E+02 0.86559026696E+01 0.79968690478E+01 0.73215172061E+01 0.66479912440E+01
 0.59926628395E+01 0.53704497275E+01 0.47923330589E+01 0.42654118223E+01 0.37935125708E+01
 0.33768420979E+01 0.30137259806E+01 0.27008384527E+01 0.24344514523E+01 0.22106170989E+01
 0.20256810421E+01 0.18761983056E+01 0.17590694786E+01 0.16714253089E+01 0.16108243645E+01
 0.15752988506E+01 0.15636085265E+01 0.15752992769E+01 0.16108237978E+01 0.16714264408E+01
 0.17590677958E+01 0.18762007858E+01 0.20256772017E+01 0.22106195305E+01 0.24344511976E+01
 0.27008526422E+01 0.30137192129E+01 0.33768547807E+01 0.37934826904E+01 0.42654399432E+01
 0.47922988467E+01 0.53704816405E+01 0.59927157838E+01 0.66479042034E+01 0.73215959767E+01
 0.79969007021E+01 0.86557461531E+01 0.92801790218E+01 0.98535140559E+01 0.10361100692E+02
 0.10791229769E+02 0.11134164004E+02 0.11382726856E+02 0.11532921219E+02 0.11583118729E+02
 0.11532935598E+02 0.11382781566E+02 0.11134357412E+02 0.10791414533E+02 0.10361073467E+02
 0.98532573792E+01 0.92801812238E+01 0.74265497256E+01 0.68380283946E+01 0.62467614431E+01
 0.56675365569E+01 0.51135683598E+01 0.45945663240E+01 0.41176375209E+01 0.36867626955E+01
 0.33028893420E+01 0.29653142671E+01 0.26716846329E+01 0.24192411034E+01 0.22048674398E+01
 0.20256478400E+01 0.18787374390E+01 0.17615067041E+01 0.16714253089E+01 0.16062354244E+01
 0.15639758428E+01 0.15432335052E+01 0.15432300188E+01 0.15639795160E+01 0.16062318300E+01
 0.16714293961E+01 0.17615019184E+01 0.18787432034E+01 0.20256433688E+01 0.22048691829E+01
 0.24192264252E+01 0.26716931948E+01 0.29653026304E+01 0.33029186835E+01 0.36867389256E+01
 0.41176659351E+01 0.45945420000E+01 0.51135146526E+01 0.56676060809E+01 0.62467143233E+01
 0.68379943543E+01 0.74266488418E+01 0.79969007021E+01 0.85330504763E+01 0.90203808159E+01
 0.94459689264E+01 0.97988044679E+01 0.10070478476E+02 0.10254926394E+02 0.10348151445E+02
 0.10348147824E+02 0.10254894180E+02 0.10070370435E+02 0.97985874564E+01 0.94458926268E+01
 0.90205205103E+01 0.85331836609E+01 0.79968613865E+01 0.63345276594E+01 0.58245745278E+01
 0.53212242678E+01 0.48357440531E+01 0.43769495310E+01 0.39517691145E+01 0.35640758175E+01
 0.32155169725E+01 0.29061829531E+01 0.26346017825E+01 0.23989101424E+01 0.21967459069E+01
 0.20258671844E+01 0.18839725190E+01 0.17689054353E+01 0.16785195850E+01 0.16108243645E+01
 0.15639758428E+01 0.15365200887E+01 0.15274757942E+01 0.15365198102E+01 0.15639765676E+01
 0.16108232309E+01 0.16785216968E+01 0.17689020147E+01 0.18839746741E+01 0.20258680139E+01
 0.21967578154E+01 0.23989037186E+01 0.26346096564E+01 0.29061567546E+01 0.32155339197E+01
 0.35640532877E+01 0.39517850734E+01 0.43770048437E+01 0.48356860986E+01 0.53212555726E+01
 0.58246047677E+01 0.63344633216E+01 0.68379943543E+01 0.73215959767E+01 0.77717033355E+01
 0.81755769641E+01 0.85218152551E+01 0.88010323365E+01 0.90057632939E+01 0.91306829181E+01
 0.91726616547E+01 0.91307014791E+01 0.90058393539E+01 0.88011735178E+01 0.85219755623E+01
 0.81755412977E+01 0.77715982437E+01 0.73215165580E+01 0.68380360084E+01 0.53931137074E+01
 0.49633849880E+01 0.45450024062E+01 0.41460763976E+01 0.37729430401E+01 0.34293487934E+01
 0.31176157546E+01 0.28384046186E+01 0.25910508474E+01 0.23744625264E+01 0.21869235051E+01
 0.20267816240E+01 0.18922170653E+01 0.17815226963E+01 0.16929270316E+01 0.16247356083E+01
 0.15752988506E+01 0.15432335052E+01 0.15274757942E+01 0.15274789273E+01 0.15432303295E+01
 0.15753023478E+01 0.16247314349E+01 0.16929324265E+01 0.17815184340E+01 0.18922173569E+01
 0.20267686332E+01 0.21869314058E+01 0.23744550325E+01 0.25910775056E+01 0.28383905415E+01
 0.31176360878E+01 0.34293358669E+01 0.37728884143E+01 0.41461219573E+01 0.45449829015E+01
 0.49633576277E+01 0.53931598977E+01 0.58246047677E+01 0.62467143233E+01 0.66479042034E+01
 0.70166586024E+01 0.73421181541E+01 0.76147019503E+01 0.78263018726E+01 0.79707914581E+01
 0.80440656032E+01 0.80440578439E+01 0.79707401917E+01 0.78261959686E+01 0.76145847374E+01
 0.73420413283E+01 0.70167009780E+01 0.66479873614E+01 0.62467616554E+01 0.58245672418E+01
 0.46032196037E+01 0.42490830915E+01 0.39081873934E+01 0.35860774505E+01 0.32865400053E+01
 0.30123091105E+01 0.27643647557E+01 0.25427966849E+01 0.23471332914E+01 0.21762348933E+01
 0.20289715109E+01 0.19039316605E+01 0.17997860109E+01 0.17150741280E+01 0.16483880712E+01
 0.15983123201E+01 0.15636085265E+01 0.15432300188E+01 0.15365198102E+01 0.15432303295E+01
 0.15636076464E+01 0.15983140520E+01 0.16483848055E+01 0.17150764243E+01 0.17997878686E+01
 0.19039418787E+01 0.20289648164E+01 0.21762387164E+01 0.23471086307E+01 0.25428055151E+01
 0.27643482629E+01 0.30123168678E+01 0.32865953755E+01 0.35860384180E+01 0.39081997876E+01
 0.42491038022E+01 0.46031868615E+01 0.49633576277E+01 0.53212555726E+01 0.56676060809E+01
 0.59927157838E+01 0.62869722962E+01 0.65413973521E+01 0.67480245465E+01 0.69004444810E+01
 0.69938650156E+01 0.70253476241E+01 0.69938979041E+01 0.69005204961E+01 0.67481189804E+01
 0.65414578939E+01 0.62870337494E+01 0.59926634757E+01 0.56675408244E+01 0.53212240291E+01
 0.49633919384E+01 0.39550811307E+01 0.36691079959E+01 0.33960411144E+01 0.31396683582E+01
 0.29027196889E+01 0.26864485186E+01 0.24916443461E+01 0.23182696327E+01 0.21657076852E+01
 0.20332465748E+01 0.19197895336E+01 0.18243010155E+01 0.17455652933E+01 0.16824319044E+01
 0.16337072165E+01 0.15983179623E+01 0.15752992769E+01 0.15639795160E+01 0.15639765676E+01
 0.15753023478E+01 0.15983140520E+01 0.16337124120E+01 0.16824276242E+01 0.17455646651E+01
 0.18242898984E+01 0.19197977917E+01 0.20332429606E+01 0.21657331703E+01 0.23182630388E+01
 0.24916605202E+01 0.26864429682E+01 0.29026659227E+01 0.31396989481E+01 0.33960345618E+01
 0.36690893351E+01 0.39551052602E+01 0.42491038022E+01 0.45449829015E+01 0.48356860986E+01
 0.51135146526E+01 0.53704816405E+01 0.55987619628E+01 0.57910906186E+01 0.59412391342E+01
 0.60441853064E+01 0.60965139388E+01 0.60964910074E+01 0.60441345948E+01 0.59411674569E+01
 0.57910355960E+01 0.55987084017E+01 0.53704370684E+01 0.51135676855E+01 0.48357397574E+01
 0.45450026393E+01 0.42490763658E+01 0.34339908292E+01 0.32071842270E+01 0.29922160888E+01
 0.27916187021E+01 0.26069847252E+01 0.24395280023E+01 0.22894391716E+01 0.21565914560E+01
 0.20405773739E+01 0.19405685374E+01 0.18557651427E+01 0.17851288436E+01 0.17276956045E+01
 0.16824250155E+01 0.16483880132E+01 0.16247300488E+01 0.16108237978E+01 0.16062318300E+01
 0.16108232309E+01 0.16247314349E+01 0.16483848055E+01 0.16824276242E+01 0.17276985557E+01
 0.17851377237E+01 0.18557581192E+01 0.19405689235E+01 0.20405532904E+01 0.21565935179E+01
 0.22894255946E+01 0.24395300505E+01 0.26070398810E+01 0.27915936239E+01 0.29922201910E+01
 0.32071977063E+01 0.34339733825E+01 0.36690893351E+01 0.39081997876E+01 0.41461219573E+01
 0.43770048437E+01 0.45945420000E+01 0.47922988467E+01 0.49640407860E+01 0.51041308771E+01
 0.52077841332E+01 0.52714724792E+01 0.52929668994E+01 0.52715097789E+01 0.52078312219E+01
 0.51041742993E+01 0.49640933075E+01 0.47923387347E+01 0.45945789280E+01 0.43769501802E+01
 0.41460808121E+01 0.39081872276E+01 0.36691145924E+01 0.30232497875E+01 0.28473160847E+01
 0.26817367458E+01 0.25283024128E+01 0.23882846653E+01 0.22620915433E+01 0.21500525789E+01
 0.20519292221E+01 0.19671345931E+01 0.18950207216E+01 0.18346454468E+01 0.17851470261E+01
 0.17455660908E+01 0.17150810107E+01 0.16929272088E+01 0.16785254129E+01 0.16714264408E+01
 0.16714293961E+01 0.16785216968E+01 0.16929324265E+01 0.17150764243E+01 0.17455646651E+01
 0.17851377237E+01 0.18346546939E+01 0.18950209676E+01 0.19671601067E+01 0.20519291007E+01
 0.21500667125E+01 0.22620911612E+01 0.23882313882E+01 0.25283215349E+01 0.26817369897E+01
 0.28473054018E+01 0.30232638958E+01 0.32071977063E+01 0.33960345618E+01 0.35860384180E+01
 0.37728884143E+01 0.39517850734E+01 0.41176659351E+01 0.42654399432E+01 0.43903049253E+01
 0.44880038679E+01 0.45551566639E+01 0.45893345902E+01 0.45893224630E+01 0.45551216961E+01
 0.44879809056E+01 0.43902597437E+01 0.42653994306E+01 0.41176326986E+01 0.39517569721E+01
 0.37729425870E+01 0.35860730467E+01 0.33960413191E+01 0.32071778101E+01 0.27076415731E+01
 0.25753679309E+01 0.24522272577E+01 0.23394146364E+01 0.22376090171E+01 0.21473558864E+01
 0.20684409676E+01 0.20005157183E+01 0.19430024589E+01 0.18950241648E+01 0.18557661354E+01
 0.18242826994E+01 0.17997840646E+01 0.17815154734E+01 0.17689051646E+01 0.17615007801E+01
 0.17590677958E+01 0.17615019184E+01 0.17689020147E+01 0.17815184340E+01 0.17997878686E+01
 0.18242898984E+01 0.18557581192E+01 0.18950209676E+01 0.19429780042E+01 0.20005115374E+01
 0.20684282454E+01 0.21473529567E+01 0.22376634858E+01 0.23394001554E+01 0.24522269142E+01
 0.25753750814E+01 0.27076323289E+01 0.28473054018E+01 0.29922201910E+01 0.31396989481E+01
 0.32865953755E+01 0.34293358669E+01 0.35640532877E+01 0.36867389256E+01 0.37934826904E+01
 0.38806839306E+01 0.39453140490E+01 0.39850332993E+01 0.39984426499E+01 0.39850447023E+01
 0.39453299852E+01 0.38807100035E+01 0.37935207124E+01 0.36867746923E+01 0.35640798433E+01
 0.34293606653E+01 0.32865403631E+01 0.31396728249E+01 0.29922159571E+01 0.28473224339E+01
 0.24744101619E+01 0.23803952315E+01 0.22944418402E+01 0.22173457231E+01 0.21495849874E+01
 0.20910162248E+01 0.20415246792E+01 0.20005055793E+01 0.19671338181E+01 0.19405650695E+01
 0.19197874307E+01 0.19039496996E+01 0.18922197303E+01 0.18839799320E+01 0.18787377929E+01
 0.18762045628E+01 0.18762007858E+01 0.18787432034E+01 0.18839746741E+01 0.18922173569E+01
 0.19039418787E+01 0.19197977917E+01 0.19405689235E+01 0.19671601067E+01 0.20005115374E+01
 0.20415384042E+01 0.20910200616E+01 0.21495315657E+01 0.22173544181E+01 0.22944447421E+01
 0.23803907193E+01 0.24744188734E+01 0.25753750814E+01 0.26817369897E+01 0.27915936239E+01
 0.29026659227E+01 0.30123168678E+01 0.31176360878E+01 0.32155339197E+01 0.33029186835E+01
 0.33768547807E+01 0.34347713971E+01 0.34745822575E+01 0.34948739581E+01 0.34948721472E+01
 0.34745867034E+01 0.34347507614E+01 0.33768357168E+01 0.33028823525E+01 0.32155054130E+01
 0.31176123436E+01 0.30122973542E+01 0.29027193533E+01 0.27916141878E+01 0.26817368558E+01
 0.25753616529E+01 0.23141498007E+01 0.22544942977E+01 0.22021471136E+01 0.21574703015E+01
 0.21204595767E+01 0.20910275076E+01 0.20684415328E+01 0.20519395572E+01 0.20405791904E+01
 0.20332503236E+01 0.20289746393E+01 0.20267635629E+01 0.20258634763E+01 0.20256399800E+01
 0.20256802271E+01 0.20257110669E+01 0.20256772017E+01 0.20256433688E+01 0.20258680139E+01
 0.20267686332E+01 0.20289648164E+01 0.20332429606E+01 0.20405532904E+01 0.20519291007E+01
 0.20684282454E+01 0.20910200616E+01 0.21205135556E+01 0.21574649014E+01 0.22021442684E+01
 0.22544949024E+01 0.23141439166E+01 0.23803907193E+01 0.24522269142E+01 0.25283215349E+01
 0.26070398810E+01 0.26864429682E+01 0.27643482629E+01 0.28383905415E+01 0.29061567546E+01
 0.29653026304E+01 0.30137192129E+01 0.30496307926E+01 0.30717305130E+01 0.30791746809E+01
 0.30717200630E+01 0.30496314724E+01 0.30137340310E+01 0.29653198574E+01 0.29061885185E+01
 0.28384155561E+01 0.27643673543E+01 0.26864600050E+01 0.26069849282E+01 0.25283069220E+01
 0.24522271448E+01 0.23804014220E+01 0.22203991399E+01 0.21927335684E+01 0.21717585595E+01
 0.21574657353E+01 0.21495849542E+01 0.21473446549E+01 0.21500516512E+01 0.21565812110E+01
 0.21657051469E+01 0.21762309350E+01 0.21869192612E+01 0.21967639017E+01 0.22048723450E+01
 0.22106258187E+01 0.22135950330E+01 0.22136016639E+01 0.22106195305E+01 0.22048691829E+01
 0.21967578154E+01 0.21869314058E+01 0.21762387164E+01 0.21657331703E+01 0.21565935179E+01
 0.21500667125E+01 0.21473529567E+01 0.21495315657E+01 0.21574649014E+01 0.21717619524E+01
 0.21927343452E+01 0.22204048515E+01 0.22544949024E+01 0.22944447421E+01 0.23394001554E+01
 0.23882313882E+01 0.24395300505E+01 0.24916605202E+01 0.25428055151E+01 0.25910775056E+01
 0.26346096564E+01 0.26716931948E+01 0.27008526422E+01 0.27209495426E+01 0.27311867566E+01
 0.27311974731E+01 0.27209522545E+01 0.27008562663E+01 0.26716778726E+01 0.26345967979E+01
 0.25910461993E+01 0.25427858852E+01 0.24916422295E+01 0.24395165792E+01 0.23882845014E+01
 0.23394100786E+01 0.22944418712E+01 0.22544880958E+01 0.21895572251E+01 0.21927397222E+01
 0.22021470656E+01 0.22173502766E+01 0.22376091477E+01 0.22621029234E+01 0.22894407537E+01
 0.23182801614E+01 0.23471368318E+01 0.23744669033E+01 0.23989156773E+01 0.24192235017E+01
 0.24344454575E+01 0.24438595052E+01 0.24470545972E+01 0.24438628272E+01 0.24344511976E+01
 0.24192264252E+01 0.23989037186E+01 0.23744550325E+01 0.23471086307E+01 0.23182630388E+01
 0.22894255946E+01 0.22620911612E+01 0.22376634858E+01 0.22173544181E+01 0.22021442684E+01
 0.21927343452E+01 0.21895520290E+01 0.21927343452E+01 0.22021442684E+01 0.22173544181E+01
 0.22376634858E+01 0.22620911612E+01 0.22894255946E+01 0.23182630388E+01 0.23471086307E+01
 0.23744550325E+01 0.23989037186E+01 0.24192264252E+01 0.24344511976E+01 0.24438628272E+01
 0.24470545972E+01 0.24438595052E+01 0.24344454575E+01 0.24192235017E+01 0.23989156773E+01
 0.23744669033E+01 0.23471368318E+01 0.23182801614E+01 0.22894407537E+01 0.22621029234E+01
 0.22376091477E+01 0.22173502766E+01 0.22021470656E+01 0.21927397222E+01 0.22203991399E+01
 0.22544880958E+01 0.22944418712E+01 0.23394100786E+01 0.23882845014E+01 0.24395165792E+01