ws2                                     
   1.2448260000000000     
    -0.000000    2.275731    2.275731
     2.275731   -0.000000    2.275731
     2.275731    2.275731    0.000000
   Na
     1
Direct
  0.000000  0.000000  0.000000

   60   60   60
 0.43626989385E+00 0.43298140301E+00 0.42374535765E+00 0.41036821258E+00 0.39561028165E+00
 0.38288592256E+00 0.37593110841E+00 0.37841749558E+00 0.39351300162E+00 0.42336992170E+00
 0.46860996113E+00 0.52796764882E+00 0.59824830314E+00 0.67472217309E+00 0.75191883468E+00
 0.82459981409E+00 0.88866416157E+00 0.94164046464E+00 0.98311860192E+00 0.10145966895E+01
 0.10381385450E+01 0.10557226189E+01 0.10688804707E+01 0.10786332708E+01 0.10855778130E+01
 0.10901197166E+01 0.10926482465E+01 0.10936680166E+01 0.10937680587E+01 0.10935390787E+01
 0.10934078884E+01 0.10935390787E+01 0.10937680587E+01 0.10936680166E+01 0.10926482465E+01
 0.10901197166E+01 0.10855778130E+01 0.10786332708E+01 0.10688804707E+01 0.10557226189E+01
 0.10381385450E+01 0.10145966895E+01 0.98311860192E+00 0.94164046464E+00 0.88866416157E+00
 0.82459981409E+00 0.75191883468E+00 0.67472217309E+00 0.59824830314E+00 0.52796764882E+00
 0.46860996113E+00 0.42336992170E+00 0.39351300162E+00 0.37841749558E+00 0.37593110841E+00
 0.38288592256E+00 0.39561028165E+00 0.41036821258E+00 0.42374535765E+00 0.43298140301E+00
 0.43298140301E+00 0.42672065856E+00 0.41542515872E+00 0.40138903477E+00 0.38771330482E+00
 0.37798836415E+00 0.37593370706E+00 0.38499099023E+00 0.40784711255E+00 0.44589825180E+00
 0.49881482707E+00 0.56431238169E+00 0.63834925063E+00 0.71572026640E+00 0.79099116546E+00
 0.85944357471E+00 0.91780664237E+00 0.96461692228E+00 0.10005867812E+01 0.10276413363E+01
 0.10478342138E+01 0.10629404291E+01 0.10742149346E+01 0.10824401058E+01 0.10880828924E+01
 0.10915217311E+01 0.10931954239E+01 0.10936590967E+01 0.10935167644E+01 0.10932930514E+01
 0.10932931026E+01 0.10935166732E+01 0.10936591324E+01 0.10931953489E+01 0.10915218096E+01
 0.10880828571E+01 0.10824402054E+01 0.10742148808E+01 0.10629404939E+01 0.10478341188E+01
 0.10276413941E+01 0.10005867004E+01 0.96461703147E+00 0.91780657547E+00 0.85944372283E+00
 0.79099091314E+00 0.71572023980E+00 0.63834890072E+00 0.56431253431E+00 0.49881441042E+00
 0.44589863033E+00 0.40784668241E+00 0.38499148869E+00 0.37593367925E+00 0.37798822070E+00
 0.38771383720E+00 0.40138792425E+00 0.41542443138E+00 0.42672078414E+00 0.43298166125E+00
 0.42374535765E+00 0.41542515872E+00 0.40349516971E+00 0.39061861982E+00 0.38009684347E+00
 0.37553646794E+00 0.38046748587E+00 0.39789915019E+00 0.42980051261E+00 0.47662358517E+00
 0.53695613446E+00 0.60753710616E+00 0.68365533587E+00 0.75996059871E+00 0.83139409946E+00
 0.89406090935E+00 0.94567056682E+00 0.98599310013E+00 0.10165799283E+01 0.10394590730E+01
 0.10565543942E+01 0.10693412996E+01 0.10788001411E+01 0.10855061624E+01 0.10898575044E+01
 0.10922432099E+01 0.10931654494E+01 0.10932073837E+01 0.10929492705E+01 0.10928097542E+01
 0.10929492285E+01 0.10932073216E+01 0.10931654103E+01 0.10922432089E+01 0.10898575567E+01
 0.10855062236E+01 0.10788001975E+01 0.10693412958E+01 0.10565543637E+01 0.10394590024E+01
 0.10165799123E+01 0.98599309112E+00 0.94567066308E+00 0.89406089597E+00 0.83139402678E+00
 0.75996053810E+00 0.68365540742E+00 0.60753680997E+00 0.53695602567E+00 0.47662313668E+00
 0.42980077389E+00 0.39789891323E+00 0.38046788530E+00 0.37553631534E+00 0.38009604058E+00
 0.39061822444E+00 0.40349446165E+00 0.41542468429E+00 0.42374561024E+00 0.42672078414E+00
 0.41036821258E+00 0.40138903477E+00 0.39061861982E+00 0.38095018726E+00 0.37573459399E+00
 0.37842537803E+00 0.39216123339E+00 0.41928299727E+00 0.46083711809E+00 0.51617228762E+00
 0.58280270764E+00 0.65664281151E+00 0.73264513151E+00 0.80568076883E+00 0.87143278135E+00
 0.92700240168E+00 0.97129682550E+00 0.10052683538E+01 0.10308161335E+01 0.10499010718E+01
 0.10641792918E+01 0.10748112146E+01 0.10825170476E+01 0.10877396258E+01 0.10908515574E+01
 0.10922915234E+01 0.10926059752E+01 0.10923819479E+01 0.10921240414E+01 0.10921239879E+01
 0.10923818905E+01 0.10926058763E+01 0.10922915139E+01 0.10908515738E+01 0.10877397329E+01
 0.10825171134E+01 0.10748112721E+01 0.10641792351E+01 0.10499010014E+01 0.10308160209E+01
 0.10052683308E+01 0.97129684290E+00 0.92700255550E+00 0.87143284024E+00 0.80568081202E+00
 0.73264472063E+00 0.65664236723E+00 0.58280216004E+00 0.51617215551E+00 0.46083674837E+00
 0.41928323966E+00 0.39216100595E+00 0.37842589627E+00 0.37573445093E+00 0.38095036172E+00
 0.39061778356E+00 0.40138781234E+00 0.41036806457E+00 0.41542468429E+00 0.41542443138E+00
 0.39561028165E+00 0.38771330482E+00 0.38009684347E+00 0.37573459399E+00 0.37786171063E+00
 0.38957729529E+00 0.41340586248E+00 0.45079408901E+00 0.50169816271E+00 0.56433146081E+00
 0.63527357835E+00 0.70992731810E+00 0.78331390493E+00 0.85091715520E+00 0.90941869289E+00
 0.95705837310E+00 0.99409310208E+00 0.10221631558E+01 0.10431794387E+01 0.10588996285E+01
 0.10706379798E+01 0.10792606377E+01 0.10852855958E+01 0.10890933694E+01 0.10910739300E+01
 0.10917227421E+01 0.10916043435E+01 0.10912676723E+01 0.10911060065E+01 0.10912676049E+01
 0.10916042477E+01 0.10917226751E+01 0.10910739316E+01 0.10890934427E+01 0.10852856986E+01
 0.10792607115E+01 0.10706379756E+01 0.10588995438E+01 0.10431793151E+01 0.10221630597E+01
 0.99409311586E+00 0.95705841174E+00 0.90941880432E+00 0.85091735556E+00 0.78331410402E+00
 0.70992732801E+00 0.63527346074E+00 0.56433103919E+00 0.50169778224E+00 0.45079395589E+00
 0.41340554449E+00 0.38957762966E+00 0.37786105806E+00 0.37573439698E+00 0.38009681221E+00
 0.38771293939E+00 0.39561024879E+00 0.40138781234E+00 0.40349446165E+00 0.40138792425E+00
 0.38288592256E+00 0.37798836415E+00 0.37553646794E+00 0.37842537803E+00 0.38957729529E+00
 0.41152334379E+00 0.44593322468E+00 0.49319480671E+00 0.55210712026E+00 0.61987723369E+00
 0.69243819145E+00 0.76511284000E+00 0.83339848651E+00 0.89372949854E+00 0.94389271388E+00
 0.98349359582E+00 0.10138016168E+01 0.10366065170E+01 0.10536791892E+01 0.10664439045E+01
 0.10758906249E+01 0.10826300082E+01 0.10870697978E+01 0.10895754771E+01 0.10905882361E+01
 0.10906352322E+01 0.10902695694E+01 0.10899539010E+01 0.10899539538E+01 0.10902694016E+01
 0.10906352368E+01 0.10905881124E+01 0.10895755989E+01 0.10870697913E+01 0.10826301878E+01
 0.10758905678E+01 0.10664439641E+01 0.10536789872E+01 0.10366065196E+01 0.10138014372E+01
 0.98349382149E+00 0.94389273355E+00 0.89372975869E+00 0.83339833405E+00 0.76511298093E+00
 0.69243776311E+00 0.61987711209E+00 0.55210666646E+00 0.49319478713E+00 0.44593330924E+00
 0.41152341275E+00 0.38957812260E+00 0.37842619097E+00 0.37553666176E+00 0.37798872660E+00
 0.38288584892E+00 0.38771293939E+00 0.39061778356E+00 0.39061822444E+00 0.38771383720E+00
 0.37593110841E+00 0.37593370706E+00 0.38046748587E+00 0.39216123339E+00 0.41340586248E+00
 0.44593322468E+00 0.49039329028E+00 0.54603243094E+00 0.61060467280E+00 0.68058590920E+00
 0.75169402131E+00 0.81960695701E+00 0.88067726111E+00 0.93242567412E+00 0.97393963705E+00
 0.10060681478E+01 0.10304186442E+01 0.10487009007E+01 0.10623874350E+01 0.10725590212E+01
 0.10799123639E+01 0.10848995359E+01 0.10878793552E+01 0.10892529983E+01 0.10894999562E+01
 0.10891558837E+01 0.10887121497E+01 0.10885227981E+01 0.10887121075E+01 0.10891558111E+01
 0.10894999155E+01 0.10892529779E+01 0.10878794134E+01 0.10848995818E+01 0.10799124457E+01
 0.10725590056E+01 0.10623874361E+01 0.10487007976E+01 0.10304186579E+01 0.10060680603E+01
 0.97393976519E+00 0.93242579343E+00 0.88067771469E+00 0.81960707021E+00 0.75169420722E+00
 0.68058576813E+00 0.61060490667E+00 0.54603243241E+00 0.49039310284E+00 0.44593367233E+00
 0.41340545789E+00 0.39216143400E+00 0.38046810916E+00 0.37593380553E+00 0.37593065097E+00
 0.37798872660E+00 0.38009681221E+00 0.38095036172E+00 0.38009604058E+00 0.37798822070E+00
 0.37841749558E+00 0.38499099023E+00 0.39789915019E+00 0.41928299727E+00 0.45079408901E+00
 0.49319480671E+00 0.54603243094E+00 0.60751078145E+00 0.67460666710E+00 0.74348149503E+00
 0.81010015456E+00 0.87088522653E+00 0.92323928699E+00 0.96590090624E+00 0.99931454634E+00
 0.10248689436E+01 0.10441509296E+01 0.10586228109E+01 0.10694068995E+01 0.10772694054E+01
 0.10827045092E+01 0.10860844300E+01 0.10877812230E+01 0.10882357179E+01 0.10879478005E+01
 0.10874134840E+01 0.10870340365E+01 0.10870339514E+01 0.10874135265E+01 0.10879476920E+01
 0.10882357713E+01 0.10877811490E+01 0.10860845356E+01 0.10827044700E+01 0.10772695299E+01
 0.10694068363E+01 0.10586229093E+01 0.10441508139E+01 0.10248690949E+01 0.99931446898E+00
 0.96590102795E+00 0.92323910242E+00 0.87088544467E+00 0.81009994326E+00 0.74348171403E+00
 0.67460622508E+00 0.60751035057E+00 0.54603240653E+00 0.49319423764E+00 0.45079483841E+00
 0.41928340039E+00 0.39789899012E+00 0.38499218340E+00 0.37841787276E+00 0.37593380553E+00
 0.37553666176E+00 0.37573439698E+00 0.37573445093E+00 0.37553631534E+00 0.37593367925E+00
 0.39351300162E+00 0.40784711255E+00 0.42980051261E+00 0.46083711809E+00 0.50169816271E+00
 0.55210712026E+00 0.61060467280E+00 0.67460666710E+00 0.74071705321E+00 0.80525293697E+00
 0.86481721986E+00 0.91682134440E+00 0.95980445345E+00 0.99388415271E+00 0.10202115691E+01
 0.10402176241E+01 0.10552951266E+01 0.10665639986E+01 0.10748235898E+01 0.10806035332E+01
 0.10842922429E+01 0.10862504524E+01 0.10868880750E+01 0.10866703422E+01 0.10860771190E+01
 0.10855279989E+01 0.10853110744E+01 0.10855279965E+01 0.10860771299E+01 0.10866703228E+01
 0.10868880855E+01 0.10862504178E+01 0.10842922785E+01 0.10806035179E+01 0.10748236810E+01
 0.10665639968E+01 0.10552952466E+01 0.10402175214E+01 0.10202116497E+01 0.99388408327E+00
 0.95980470060E+00 0.91682130708E+00 0.86481753467E+00 0.80525285693E+00 0.74071722020E+00
 0.67460697914E+00 0.61060435966E+00 0.55210763602E+00 0.50169681865E+00 0.46083691231E+00
 0.42980058317E+00 0.40784692489E+00 0.39351333697E+00 0.38499218340E+00 0.38046810916E+00
 0.37842619097E+00 0.37786105806E+00 0.37842589627E+00 0.38046788530E+00 0.38499148869E+00
 0.42336992170E+00 0.44589825180E+00 0.47662358517E+00 0.51617228762E+00 0.56433146081E+00
 0.61987723369E+00 0.68058590920E+00 0.74348149503E+00 0.80525293697E+00 0.86276250735E+00
 0.91352133973E+00 0.95599692314E+00 0.99007564828E+00 0.10166845048E+01 0.10370783387E+01
 0.10525404006E+01 0.10641427208E+01 0.10726815280E+01 0.10787008700E+01 0.10826018799E+01
 0.10847425268E+01 0.10855141598E+01 0.10853542376E+01 0.10847194706E+01 0.10840268774E+01
 0.10835947446E+01 0.10835948286E+01 0.10840268468E+01 0.10847195761E+01 0.10853541765E+01
 0.10855142133E+01 0.10847424110E+01 0.10826019372E+01 0.10787007932E+01 0.10726816756E+01
 0.10641426796E+01 0.10525406091E+01 0.10370781967E+01 0.10166845074E+01 0.99007522207E+00
 0.95599693952E+00 0.91352102315E+00 0.86276264846E+00 0.80525285642E+00 0.74348120229E+00
 0.68058618381E+00 0.61987595745E+00 0.56433224669E+00 0.51617194073E+00 0.47662345937E+00
 0.44589879376E+00 0.42337042240E+00 0.40784692489E+00 0.39789899012E+00 0.39216143400E+00
 0.38957812260E+00 0.38957762966E+00 0.39216100595E+00 0.39789891323E+00 0.40784668241E+00
 0.46860996113E+00 0.49881482707E+00 0.53695613446E+00 0.58280270764E+00 0.63527357835E+00
 0.69243819145E+00 0.75169402131E+00 0.81010015456E+00 0.86481721986E+00 0.91352133973E+00
 0.95470143735E+00 0.98811166108E+00 0.10144818608E+01 0.10348881556E+01 0.10504770015E+01
 0.10622383264E+01 0.10709291822E+01 0.10770832076E+01 0.10811010994E+01 0.10833392421E+01
 0.10841795092E+01 0.10840416438E+01 0.10833626144E+01 0.10825458863E+01 0.10819168639E+01
 0.10816830509E+01 0.10819169261E+01 0.10825459481E+01 0.10833626922E+01 0.10840416108E+01
 0.10841794927E+01 0.10833391116E+01 0.10811011039E+01 0.10770831402E+01 0.10709293329E+01
 0.10622382638E+01 0.10504771562E+01 0.10348880433E+01 0.10144819901E+01 0.98811136523E+00
 0.95470151168E+00 0.91352124659E+00 0.86481725734E+00 0.81010076734E+00 0.75169346798E+00
 0.69243936000E+00 0.63527241013E+00 0.58280249666E+00 0.53695574986E+00 0.49881403259E+00
 0.46860922726E+00 0.44589879376E+00 0.42980058317E+00 0.41928340039E+00 0.41340545789E+00
 0.41152341275E+00 0.41340554449E+00 0.41928323966E+00 0.42980077389E+00 0.44589863033E+00
 0.52796764882E+00 0.56431238169E+00 0.60753710616E+00 0.65664281151E+00 0.70992731810E+00
 0.76511284000E+00 0.81960695701E+00 0.87088522653E+00 0.91682134440E+00 0.95599692314E+00
 0.98811166108E+00 0.10137330944E+01 0.10337622815E+01 0.10491987769E+01 0.10609251782E+01
 0.10696322848E+01 0.10758168204E+01 0.10798623064E+01 0.10821163580E+01 0.10829546650E+01
 0.10827882237E+01 0.10820420439E+01 0.10811066788E+01 0.10803007025E+01 0.10798424392E+01
 0.10798425580E+01 0.10803007125E+01 0.10811068511E+01 0.10820420061E+01 0.10827882606E+01
 0.10829544904E+01 0.10821163133E+01 0.10798621699E+01 0.10758168833E+01 0.10696323422E+01
 0.10609253027E+01 0.10491986894E+01 0.10337621375E+01 0.10137328079E+01 0.98811147510E+00
 0.95599652988E+00 0.91682162819E+00 0.87088444639E+00 0.81960811960E+00 0.76511148883E+00
 0.70992864787E+00 0.65664230741E+00 0.60753679682E+00 0.56431253166E+00 0.52796827485E+00
 0.49881403259E+00 0.47662345937E+00 0.46083691231E+00 0.45079483841E+00 0.44593367233E+00
 0.44593330924E+00 0.45079395589E+00 0.46083674837E+00 0.47662313668E+00 0.49881441042E+00
 0.59824830314E+00 0.63834925063E+00 0.68365533587E+00 0.73264513151E+00 0.78331390493E+00
 0.83339848651E+00 0.88067726111E+00 0.92323928699E+00 0.95980445345E+00 0.99007564828E+00
 0.10144818608E+01 0.10337622815E+01 0.10487653179E+01 0.10602554642E+01 0.10688361831E+01
 0.10749487532E+01 0.10789401286E+01 0.10811391350E+01 0.10819101523E+01 0.10816607662E+01
 0.10808112256E+01 0.10797465226E+01 0.10787755827E+01 0.10781127017E+01 0.10778788650E+01
 0.10781127625E+01 0.10787756753E+01 0.10797465853E+01 0.10808112337E+01 0.10816606903E+01
 0.10819100449E+01 0.10811390249E+01 0.10789400894E+01 0.10749487416E+01 0.10688362827E+01
 0.10602556505E+01 0.10487654526E+01 0.10337623933E+01 0.10144816490E+01 0.99007585023E+00
 0.95980378195E+00 0.92324036345E+00 0.88067611250E+00 0.83340033476E+00 0.78331288760E+00
 0.73264525861E+00 0.68365631417E+00 0.63834884256E+00 0.59824769018E+00 0.56431253166E+00
 0.53695574986E+00 0.51617194073E+00 0.50169681865E+00 0.49319423764E+00 0.49039310284E+00
 0.49319478713E+00 0.50169778224E+00 0.51617215551E+00 0.53695602567E+00 0.56431253431E+00
 0.67472217309E+00 0.71572026640E+00 0.75996059871E+00 0.80568076883E+00 0.85091715520E+00
 0.89372949854E+00 0.93242567412E+00 0.96590090624E+00 0.99388415271E+00 0.10166845048E+01
 0.10348881556E+01 0.10491987769E+01 0.10602554642E+01 0.10685681958E+01 0.10745075058E+01
 0.10783726601E+01 0.10804581668E+01 0.10811109612E+01 0.10807306256E+01 0.10797393212E+01
 0.10785221961E+01 0.10773860522E+01 0.10765355419E+01 0.10760866506E+01 0.10760864266E+01
 0.10765358233E+01 0.10773858536E+01 0.10785224647E+01 0.10797390601E+01 0.10807308327E+01
 0.10811106326E+01 0.10804583836E+01 0.10783723997E+01 0.10745078376E+01 0.10685678805E+01
 0.10602558468E+01 0.10491983749E+01 0.10348887370E+01 0.10166837110E+01 0.99388510044E+00
 0.96589924538E+00 0.93242719940E+00 0.89372773429E+00 0.85091812997E+00 0.80568162612E+00
 0.75995970633E+00 0.71572085241E+00 0.67472293149E+00 0.63834884256E+00 0.60753679682E+00
 0.58280249666E+00 0.56433224669E+00 0.55210763602E+00 0.54603240653E+00 0.54603243241E+00
 0.55210666646E+00 0.56433103919E+00 0.58280216004E+00 0.60753680997E+00 0.63834890072E+00
 0.75191883468E+00 0.79099116546E+00 0.83139409946E+00 0.87143278135E+00 0.90941869289E+00
 0.94389271388E+00 0.97393963705E+00 0.99931454634E+00 0.10202115691E+01 0.10370783387E+01
 0.10504770015E+01 0.10609251782E+01 0.10688361831E+01 0.10745075058E+01 0.10781810359E+01
 0.10801090298E+01 0.10806085582E+01 0.10800658589E+01 0.10789011241E+01 0.10775066070E+01
 0.10761929290E+01 0.10751624476E+01 0.10745191757E+01 0.10743020552E+01 0.10745191438E+01
 0.10751624624E+01 0.10761928712E+01 0.10775066919E+01 0.10789010647E+01 0.10800660096E+01
 0.10806084366E+01 0.10801091628E+01 0.10781808348E+01 0.10745078514E+01 0.10688360291E+01
 0.10609257791E+01 0.10504766600E+01 0.10370792924E+01 0.10202107091E+01 0.99931598974E+00
 0.97393830492E+00 0.94389362618E+00 0.90941867969E+00 0.87143103312E+00 0.83139609288E+00
 0.79099063328E+00 0.75191888863E+00 0.71572085241E+00 0.68365631417E+00 0.65664230741E+00
 0.63527241013E+00 0.61987595745E+00 0.61060435966E+00 0.60751035057E+00 0.61060490667E+00
 0.61987711209E+00 0.63527346074E+00 0.65664236723E+00 0.68365540742E+00 0.71572023980E+00
 0.82459981409E+00 0.85944357471E+00 0.89406090935E+00 0.92700240168E+00 0.95705837310E+00
 0.98349359582E+00 0.10060681478E+01 0.10248689436E+01 0.10402176241E+01 0.10525404006E+01
 0.10622383264E+01 0.10696322848E+01 0.10749487532E+01 0.10783726601E+01 0.10801090298E+01
 0.10804371612E+01 0.10797189073E+01 0.10783657852E+01 0.10767751577E+01 0.10752682081E+01
 0.10740530220E+01 0.10732281158E+01 0.10728175164E+01 0.10728175006E+01 0.10732280322E+01
 0.10740529747E+01 0.10752681739E+01 0.10767752412E+01 0.10783658552E+01 0.10797190636E+01
 0.10804371989E+01 0.10801090761E+01 0.10783724138E+01 0.10749487365E+01 0.10696320368E+01
 0.10622387082E+01 0.10525401771E+01 0.10402183888E+01 0.10248683886E+01 0.10060684657E+01
 0.98349373080E+00 0.95705648208E+00 0.92700521720E+00 0.89405817798E+00 0.85944413058E+00
 0.82460116525E+00 0.79099063328E+00 0.75995970633E+00 0.73264525861E+00 0.70992864787E+00
 0.69243936000E+00 0.68058618381E+00 0.67460697914E+00 0.67460622508E+00 0.68058576813E+00
 0.69243776311E+00 0.70992732801E+00 0.73264472063E+00 0.75996053810E+00 0.79099091314E+00
 0.88866416157E+00 0.91780664237E+00 0.94567056682E+00 0.97129682550E+00 0.99409310208E+00
 0.10138016168E+01 0.10304186442E+01 0.10441509296E+01 0.10552951266E+01 0.10641427208E+01
 0.10709291822E+01 0.10758168204E+01 0.10789401286E+01 0.10804581668E+01 0.10806085582E+01
 0.10797189073E+01 0.10781815631E+01 0.10763913225E+01 0.10746801375E+01 0.10732691354E+01
 0.10722620534E+01 0.10716736771E+01 0.10714821303E+01 0.10716736104E+01 0.10722619570E+01
 0.10732690783E+01 0.10746801476E+01 0.10763914366E+01 0.10781816873E+01 0.10797190118E+01
 0.10806085835E+01 0.10804582200E+01 0.10789400210E+01 0.10758168407E+01 0.10709290062E+01
 0.10641430378E+01 0.10552950901E+01 0.10441514936E+01 0.10304191188E+01 0.10138008898E+01
 0.99409495478E+00 0.97129413257E+00 0.94567111449E+00 0.91780841445E+00 0.88866119920E+00
 0.85944413058E+00 0.83139609288E+00 0.80568162612E+00 0.78331288760E+00 0.76511148883E+00
 0.75169346798E+00 0.74348120229E+00 0.74071722020E+00 0.74348171403E+00 0.75169420722E+00
 0.76511298093E+00 0.78331410402E+00 0.80568081202E+00 0.83139402678E+00 0.85944372283E+00
 0.94164046464E+00 0.96461692228E+00 0.98599310013E+00 0.10052683538E+01 0.10221631558E+01
 0.10366065170E+01 0.10487009007E+01 0.10586228109E+01 0.10665639986E+01 0.10726815280E+01
 0.10770832076E+01 0.10798623064E+01 0.10811391350E+01 0.10811109612E+01 0.10800658589E+01
 0.10783657852E+01 0.10763913225E+01 0.10744780889E+01 0.10728624501E+01 0.10716629427E+01
 0.10708976040E+01 0.10705322150E+01 0.10705321282E+01 0.10708975881E+01 0.10716628062E+01
 0.10728624778E+01 0.10744780447E+01 0.10763914831E+01 0.10783658291E+01 0.10800659781E+01
 0.10811107425E+01 0.10811390546E+01 0.10798619184E+01 0.10770832325E+01 0.10726811482E+01
 0.10665642748E+01 0.10586225902E+01 0.10487008517E+01 0.10366072199E+01 0.10221620129E+01
 0.10052694252E+01 0.98599389962E+00 0.96461385884E+00 0.94164181143E+00 0.91780841445E+00
 0.89405817798E+00 0.87143103312E+00 0.85091812997E+00 0.83340033476E+00 0.81960811960E+00
 0.81010076734E+00 0.80525285642E+00 0.80525285693E+00 0.81009994326E+00 0.81960707021E+00
 0.83339833405E+00 0.85091735556E+00 0.87143284024E+00 0.89406089597E+00 0.91780657547E+00
 0.98311860192E+00 0.10005867812E+01 0.10165799283E+01 0.10308161335E+01 0.10431794387E+01
 0.10536791892E+01 0.10623874350E+01 0.10694068995E+01 0.10748235898E+01 0.10787008700E+01
 0.10811010994E+01 0.10821163580E+01 0.10819101523E+01 0.10807306256E+01 0.10789011241E+01
 0.10767751577E+01 0.10746801375E+01 0.10728624501E+01 0.10714597761E+01 0.10705056836E+01
 0.10699672357E+01 0.10697950257E+01 0.10699672020E+01 0.10705056446E+01 0.10714597098E+01
 0.10728624403E+01 0.10746800908E+01 0.10767751753E+01 0.10789011232E+01 0.10807307665E+01
 0.10819101124E+01 0.10821164051E+01 0.10811008020E+01 0.10787008759E+01 0.10748232470E+01
 0.10694070125E+01 0.10623877438E+01 0.10536787948E+01 0.10431805929E+01 0.10308156269E+01
 0.10165790711E+01 0.10005884811E+01 0.98311891842E+00 0.96461385884E+00 0.94567111449E+00
 0.92700521720E+00 0.90941867969E+00 0.89372773429E+00 0.88067611250E+00 0.87088444639E+00
 0.86481725734E+00 0.86276264846E+00 0.86481753467E+00 0.87088544467E+00 0.88067771469E+00
 0.89372975869E+00 0.90941880432E+00 0.92700255550E+00 0.94567066308E+00 0.96461703147E+00
 0.10145966895E+01 0.10276413363E+01 0.10394590730E+01 0.10499010718E+01 0.10588996285E+01
 0.10664439045E+01 0.10725590212E+01 0.10772694054E+01 0.10806035332E+01 0.10826018799E+01
 0.10833392421E+01 0.10829546650E+01 0.10816607662E+01 0.10797393212E+01 0.10775066070E+01
 0.10752682081E+01 0.10732691354E+01 0.10716629427E+01 0.10705056836E+01 0.10697801109E+01
 0.10694364569E+01 0.10694364890E+01 0.10697800699E+01 0.10705056981E+01 0.10716628519E+01
 0.10732691240E+01 0.10752681197E+01 0.10775065830E+01 0.10797391541E+01 0.10816607764E+01
 0.10829545310E+01 0.10833393498E+01 0.10826016258E+01 0.10806035160E+01 0.10772690342E+01
 0.10725585098E+01 0.10664442109E+01 0.10588988659E+01 0.10499016741E+01 0.10394602150E+01
 0.10276404584E+01 0.10145960504E+01 0.10005884811E+01 0.98599389962E+00 0.97129413257E+00
 0.95705648208E+00 0.94389362618E+00 0.93242719940E+00 0.92324036345E+00 0.91682162819E+00
 0.91352124659E+00 0.91352102315E+00 0.91682130708E+00 0.92323910242E+00 0.93242579343E+00
 0.94389273355E+00 0.95705841174E+00 0.97129684290E+00 0.98599309112E+00 0.10005867004E+01
 0.10381385450E+01 0.10478342138E+01 0.10565543942E+01 0.10641792918E+01 0.10706379798E+01
 0.10758906249E+01 0.10799123639E+01 0.10827045092E+01 0.10842922429E+01 0.10847425268E+01
 0.10841795092E+01 0.10827882237E+01 0.10808112256E+01 0.10785221961E+01 0.10761929290E+01
 0.10740530220E+01 0.10722620534E+01 0.10708976040E+01 0.10699672357E+01 0.10694364569E+01
 0.10692652763E+01 0.10694364808E+01 0.10699672439E+01 0.10708976219E+01 0.10722619784E+01
 0.10740529530E+01 0.10761928556E+01 0.10785222905E+01 0.10808112638E+01 0.10827884151E+01
 0.10841794877E+01 0.10847427006E+01 0.10842921036E+01 0.10827045013E+01 0.10799125111E+01
 0.10758900727E+01 0.10706385131E+01 0.10641789626E+01 0.10565537115E+01 0.10478352402E+01
 0.10381396635E+01 0.10276404584E+01 0.10165790711E+01 0.10052694252E+01 0.99409495478E+00
 0.98349373080E+00 0.97393830492E+00 0.96589924538E+00 0.95980378195E+00 0.95599652988E+00
 0.95470151168E+00 0.95599693952E+00 0.95980470060E+00 0.96590102795E+00 0.97393976519E+00
 0.98349382149E+00 0.99409311586E+00 0.10052683308E+01 0.10165799123E+01 0.10276413941E+01
 0.10557226189E+01 0.10629404291E+01 0.10693412996E+01 0.10748112146E+01 0.10792606377E+01
 0.10826300082E+01 0.10848995359E+01 0.10860844300E+01 0.10862504524E+01 0.10855141598E+01
 0.10840416438E+01 0.10820420439E+01 0.10797465226E+01 0.10773860522E+01 0.10751624476E+01
 0.10732281158E+01 0.10716736771E+01 0.10705322150E+01 0.10697950257E+01 0.10694364890E+01
 0.10694364808E+01 0.10697951027E+01 0.10705322250E+01 0.10716737457E+01 0.10732280853E+01
 0.10751624098E+01 0.10773858853E+01 0.10797465276E+01 0.10820420268E+01 0.10840419066E+01
 0.10855142421E+01 0.10862506859E+01 0.10860843939E+01 0.10848991278E+01 0.10826301488E+01
 0.10792598687E+01 0.10748112975E+01 0.10693419912E+01 0.10629399234E+01 0.10557220034E+01
 0.10478352402E+01 0.10394602150E+01 0.10308156269E+01 0.10221620129E+01 0.10138008898E+01
 0.10060684657E+01 0.99931598974E+00 0.99388510044E+00 0.99007585023E+00 0.98811147510E+00
 0.98811136523E+00 0.99007522207E+00 0.99388408327E+00 0.99931446898E+00 0.10060680603E+01
 0.10138014372E+01 0.10221630597E+01 0.10308160209E+01 0.10394590024E+01 0.10478341188E+01
 0.10688804707E+01 0.10742149346E+01 0.10788001411E+01 0.10825170476E+01 0.10852855958E+01
 0.10870697978E+01 0.10878793552E+01 0.10877812230E+01 0.10868880750E+01 0.10853542376E+01
 0.10833626144E+01 0.10811066788E+01 0.10787755827E+01 0.10765355419E+01 0.10745191757E+01
 0.10728175164E+01 0.10714821303E+01 0.10705321282E+01 0.10699672020E+01 0.10697800699E+01
 0.10699672439E+01 0.10705322250E+01 0.10714821783E+01 0.10728175713E+01 0.10745192141E+01
 0.10765356646E+01 0.10787756129E+01 0.10811068077E+01 0.10833626182E+01 0.10853544592E+01
 0.10868881904E+01 0.10877814578E+01 0.10878798273E+01 0.10870695774E+01 0.10852860436E+01
 0.10825167254E+01 0.10787992849E+01 0.10742152481E+01 0.10688812099E+01 0.10629399234E+01
 0.10565537115E+01 0.10499016741E+01 0.10431805929E+01 0.10366072199E+01 0.10304191188E+01
 0.10248683886E+01 0.10202107091E+01 0.10166837110E+01 0.10144816490E+01 0.10137328079E+01
 0.10144819901E+01 0.10166845074E+01 0.10202116497E+01 0.10248690949E+01 0.10304186579E+01
 0.10366065196E+01 0.10431793151E+01 0.10499010014E+01 0.10565543637E+01 0.10629404939E+01
 0.10786332708E+01 0.10824401058E+01 0.10855061624E+01 0.10877396258E+01 0.10890933694E+01
 0.10895754771E+01 0.10892529983E+01 0.10882357179E+01 0.10866703422E+01 0.10847194706E+01
 0.10825458863E+01 0.10803007025E+01 0.10781127017E+01 0.10760866506E+01 0.10743020552E+01
 0.10728175006E+01 0.10716736104E+01 0.10708975881E+01 0.10705056446E+01 0.10705056981E+01
 0.10708976219E+01 0.10716737457E+01 0.10728175713E+01 0.10743020957E+01 0.10760865460E+01
 0.10781126860E+01 0.10803006353E+01 0.10825460278E+01 0.10847195227E+01 0.10866705543E+01
 0.10882358602E+01 0.10892528224E+01 0.10895758224E+01 0.10890929709E+01 0.10877397550E+01
 0.10855067276E+01 0.10824396264E+01 0.10786323634E+01 0.10742152481E+01 0.10693419912E+01
 0.10641789626E+01 0.10588988659E+01 0.10536787948E+01 0.10487008517E+01 0.10441514936E+01
 0.10402183888E+01 0.10370792924E+01 0.10348887370E+01 0.10337623933E+01 0.10337621375E+01
 0.10348880433E+01 0.10370781967E+01 0.10402175214E+01 0.10441508139E+01 0.10487007976E+01
 0.10536789872E+01 0.10588995438E+01 0.10641792351E+01 0.10693412958E+01 0.10742148808E+01
 0.10855778130E+01 0.10880828924E+01 0.10898575044E+01 0.10908515574E+01 0.10910739300E+01
 0.10905882361E+01 0.10894999562E+01 0.10879478005E+01 0.10860771190E+01 0.10840268774E+01
 0.10819168639E+01 0.10798424392E+01 0.10778788650E+01 0.10760864266E+01 0.10745191438E+01
 0.10732280322E+01 0.10722619570E+01 0.10716628062E+01 0.10714597098E+01 0.10716628519E+01
 0.10722619784E+01 0.10732280853E+01 0.10745192141E+01 0.10760865460E+01 0.10778788589E+01
 0.10798424350E+01 0.10819167046E+01 0.10840268488E+01 0.10860770664E+01 0.10879478790E+01
 0.10895004322E+01 0.10905882206E+01 0.10910745153E+01 0.10908515547E+01 0.10898569135E+01
 0.10880830984E+01 0.10855784069E+01 0.10824396264E+01 0.10787992849E+01 0.10748112975E+01
 0.10706385131E+01 0.10664442109E+01 0.10623877438E+01 0.10586225902E+01 0.10552950901E+01
 0.10525401771E+01 0.10504766600E+01 0.10491983749E+01 0.10487654526E+01 0.10491986894E+01
 0.10504771562E+01 0.10525406091E+01 0.10552952466E+01 0.10586229093E+01 0.10623874361E+01
 0.10664439641E+01 0.10706379756E+01 0.10748112721E+01 0.10788001975E+01 0.10824402054E+01
 0.10901197166E+01 0.10915217311E+01 0.10922432099E+01 0.10922915234E+01 0.10917227421E+01
 0.10906352322E+01 0.10891558837E+01 0.10874134840E+01 0.10855279989E+01 0.10835947446E+01
 0.10816830509E+01 0.10798425580E+01 0.10781127625E+01 0.10765358233E+01 0.10751624624E+01
 0.10740529747E+01 0.10732690783E+01 0.10728624778E+01 0.10728624403E+01 0.10732691240E+01
 0.10740529530E+01 0.10751624098E+01 0.10765356646E+01 0.10781126860E+01 0.10798424350E+01
 0.10816830578E+01 0.10835946512E+01 0.10855279629E+01 0.10874134207E+01 0.10891555034E+01
 0.10906353919E+01 0.10917224091E+01 0.10922917228E+01 0.10922439339E+01 0.10915216281E+01
 0.10901190311E+01 0.10880830984E+01 0.10855067276E+01 0.10825167254E+01 0.10792598687E+01
 0.10758900727E+01 0.10725585098E+01 0.10694070125E+01 0.10665642748E+01 0.10641430378E+01
 0.10622387082E+01 0.10609257791E+01 0.10602558468E+01 0.10602556505E+01 0.10609253027E+01
 0.10622382638E+01 0.10641426796E+01 0.10665639968E+01 0.10694068363E+01 0.10725590056E+01
 0.10758905678E+01 0.10792607115E+01 0.10825171134E+01 0.10855062236E+01 0.10880828571E+01
 0.10926482465E+01 0.10931954239E+01 0.10931654494E+01 0.10926059752E+01 0.10916043435E+01
 0.10902695694E+01 0.10887121497E+01 0.10870340365E+01 0.10853110744E+01 0.10835948286E+01
 0.10819169261E+01 0.10803007125E+01 0.10787756753E+01 0.10773858536E+01 0.10761928712E+01
 0.10752681739E+01 0.10746801476E+01 0.10744780447E+01 0.10746800908E+01 0.10752681197E+01
 0.10761928556E+01 0.10773858853E+01 0.10787756129E+01 0.10803006353E+01 0.10819167046E+01
 0.10835946512E+01 0.10853108607E+01 0.10870338532E+01 0.10887123683E+01 0.10902693794E+01
 0.10916047103E+01 0.10926059490E+01 0.10931649490E+01 0.10931956746E+01 0.10926490423E+01
 0.10915216281E+01 0.10898569135E+01 0.10877397550E+01 0.10852860436E+01 0.10826301488E+01
 0.10799125111E+01 0.10772690342E+01 0.10748232470E+01 0.10726811482E+01 0.10709290062E+01
 0.10696320368E+01 0.10688360291E+01 0.10685678805E+01 0.10688362827E+01 0.10696323422E+01
 0.10709293329E+01 0.10726816756E+01 0.10748236810E+01 0.10772695299E+01 0.10799124457E+01
 0.10826301878E+01 0.10852856986E+01 0.10877397329E+01 0.10898575567E+01 0.10915218096E+01
 0.10936680166E+01 0.10936590967E+01 0.10932073837E+01 0.10923819479E+01 0.10912676723E+01
 0.10899539010E+01 0.10885227981E+01 0.10870339514E+01 0.10855279965E+01 0.10840268468E+01