ws2                                     
   5.4299999999999997     
     0.000000    0.503541    0.503541
     0.503541    0.000000    0.503541
     0.503541    0.503541    0.000000
   Si
     1
Direct
  0.250000  0.250000  0.250000

   56   56   56
 0.14432163523E+01 0.14472207004E+01 0.14593362264E+01 0.14798607310E+01 0.15092700477E+01
 0.15481944903E+01 0.15973813613E+01 0.16576489893E+01 0.17298336296E+01 0.18147417880E+01
 0.19130622562E+01 0.20253456175E+01 0.21518563056E+01 0.22925791449E+01 0.24470554757E+01
 0.26143196330E+01 0.27928729564E+01 0.29805210774E+01 0.31743476073E+01 0.33707782471E+01
 0.35656341079E+01 0.37541766590E+01 0.39312965936E+01 0.40919150231E+01 0.42310798529E+01
 0.43443662455E+01 0.44280812953E+01 0.44794448284E+01 0.44967601105E+01 0.44794448507E+01
 0.44280769465E+01 0.43443617711E+01 0.42310736290E+01 0.40919055656E+01 0.39312963771E+01
 0.37541649452E+01 0.35656454658E+01 0.33707915914E+01 0.31743404777E+01 0.29805080644E+01
 0.27928766115E+01 0.26143272286E+01 0.24470499603E+01 0.22925764487E+01 0.21518581947E+01
 0.20253419856E+01 0.19130664359E+01 0.18147413961E+01 0.17298365716E+01 0.16576498642E+01
 0.15973821738E+01 0.15481942396E+01 0.15092693906E+01 0.14798598787E+01 0.14593365433E+01
 0.14472207357E+01 0.14472207004E+01 0.14566376654E+01 0.14757363920E+01 0.15050251187E+01
 0.15452142730E+01 0.15971581621E+01 0.16617956999E+01 0.17400937170E+01 0.18329935440E+01
 0.19413490248E+01 0.20658961655E+01 0.22071319347E+01 0.23653089034E+01 0.25402232212E+01
 0.27311842716E+01 0.29368492062E+01 0.31550404354E+01 0.33827736486E+01 0.36161995662E+01
 0.38505749889E+01 0.40803991680E+01 0.42997109873E+01 0.45023661689E+01 0.46822206382E+01
 0.48336679943E+01 0.49518155671E+01 0.50328044493E+01 0.50739823366E+01 0.50739836735E+01
 0.50328107740E+01 0.49518207033E+01 0.48336766860E+01 0.46822322639E+01 0.45023685881E+01
 0.42997224445E+01 0.40803877954E+01 0.38505582231E+01 0.36162064772E+01 0.33827874345E+01
 0.31550376268E+01 0.29368399020E+01 0.27311915216E+01 0.25402261562E+01 0.23653068223E+01
 0.22071357744E+01 0.20658919287E+01 0.19413490463E+01 0.18329908567E+01 0.17400925060E+01
 0.16617953268E+01 0.15971581820E+01 0.15452152746E+01 0.15050256798E+01 0.14757363018E+01
 0.14566372493E+01 0.14472211019E+01 0.14593362264E+01 0.14757363920E+01 0.15036191976E+01
 0.15437532717E+01 0.15970960308E+01 0.16647301593E+01 0.17477756036E+01 0.18473424013E+01
 0.19644696102E+01 0.21001071643E+01 0.22550175319E+01 0.24297634731E+01 0.26244758576E+01
 0.28388305269E+01 0.30717325527E+01 0.33211991725E+01 0.35842791147E+01 0.38568501366E+01
 0.41336621198E+01 0.44085596836E+01 0.46746781809E+01 0.49246917928E+01 0.51511977776E+01
 0.53472787290E+01 0.55067163929E+01 0.56244139135E+01 0.56965829380E+01 0.57208934028E+01
 0.56965724936E+01 0.56244048958E+01 0.55067049247E+01 0.53472635218E+01 0.51511903939E+01
 0.49246795167E+01 0.46746932609E+01 0.44085780460E+01 0.41336546547E+01 0.38568328882E+01
 0.35842836577E+01 0.33212114280E+01 0.30717252343E+01 0.28388266788E+01 0.26244793236E+01
 0.24297582096E+01 0.22550225686E+01 0.21001065383E+01 0.19644726577E+01 0.18473432038E+01
 0.17477763376E+01 0.16647299282E+01 0.15970953578E+01 0.15437524624E+01 0.15036194938E+01
 0.14757364887E+01 0.14593361080E+01 0.14539270090E+01 0.14798607310E+01 0.15050251187E+01
 0.15437532717E+01 0.15970844378E+01 0.16662471363E+01 0.17525296567E+01 0.18572374261E+01
 0.19816179259E+01 0.21268622618E+01 0.22940249222E+01 0.24840162897E+01 0.26973745435E+01
 0.29342212714E+01 0.31938345212E+01 0.34745804502E+01 0.37735980165E+01 0.40865986039E+01
 0.44079948314E+01 0.47309968409E+01 0.50477199252E+01 0.53496350284E+01 0.56280814559E+01
 0.58747759269E+01 0.60820475459E+01 0.62434605509E+01 0.63539467252E+01 0.64100618637E+01
 0.64100719088E+01 0.63539647973E+01 0.62434777048E+01 0.60820694709E+01 0.58747853687E+01
 0.56280970606E+01 0.53496126150E+01 0.50476954456E+01 0.47310031228E+01 0.44080194347E+01
 0.40865935215E+01 0.37735835187E+01 0.34745868578E+01 0.31938385757E+01 0.29342133442E+01
 0.26973813671E+01 0.24840081496E+01 0.22940269000E+01 0.21268574544E+01 0.19816186865E+01
 0.18572352095E+01 0.17525314539E+01 0.16662462997E+01 0.15970868666E+01 0.15437513772E+01
 0.15050265951E+01 0.14798592280E+01 0.14674833613E+01 0.14674818281E+01 0.15092700477E+01
 0.15452142730E+01 0.15970960308E+01 0.16662471363E+01 0.17541408952E+01 0.18622808778E+01
 0.19921635810E+01 0.21452318689E+01 0.23228715056E+01 0.25263539410E+01 0.27566943488E+01
 0.30145059185E+01 0.32995786170E+01 0.36107321843E+01 0.39453237664E+01 0.42990867077E+01
 0.46662160573E+01 0.50392047081E+01 0.54092044701E+01 0.57665823719E+01 0.61014072646E+01
 0.64038585540E+01 0.66647947468E+01 0.68763493222E+01 0.70321233674E+01 0.71274642041E+01
 0.71595562890E+01 0.71274419504E+01 0.70320890919E+01 0.68763200584E+01 0.66647783528E+01
 0.64038491046E+01 0.61014384106E+01 0.57666146648E+01 0.54091930901E+01 0.50391754531E+01
 0.46662226681E+01 0.42991058709E+01 0.39453094310E+01 0.36107271176E+01 0.32995864803E+01
 0.30144982334E+01 0.27567020141E+01 0.25263521833E+01 0.23228742215E+01 0.21452322878E+01
 0.19921643111E+01 0.18622806818E+01 0.17541400935E+01 0.16662463343E+01 0.15970963308E+01
 0.15452144269E+01 0.15092699322E+01 0.14881753672E+01 0.14812279878E+01 0.14881753038E+01
 0.15481944903E+01 0.15971581621E+01 0.16647301593E+01 0.17525296567E+01 0.18622808778E+01
 0.19957220477E+01 0.21545883335E+01 0.23405912074E+01 0.25554068891E+01 0.28005385835E+01
 0.30771618823E+01 0.33856653693E+01 0.37254514488E+01 0.40942347847E+01 0.44879927354E+01
 0.49007190932E+01 0.53242833398E+01 0.57490498796E+01 0.61643196145E+01 0.65586822651E+01
 0.69207580914E+01 0.72399707066E+01 0.75070754080E+01 0.77142874490E+01 0.78557409945E+01
 0.79274660500E+01 0.79274792419E+01 0.78557897653E+01 0.77143396789E+01 0.75070892249E+01
 0.72399705389E+01 0.69207059680E+01 0.65586385364E+01 0.61643419189E+01 0.57490935193E+01
 0.53242702643E+01 0.49006899988E+01 0.44880098939E+01 0.40942377996E+01 0.37254412108E+01
 0.33856785635E+01 0.30771540835E+01 0.28005428838E+01 0.25554035213E+01 0.23405907035E+01
 0.21545867270E+01 0.19957227667E+01 0.18622812343E+01 0.17525308769E+01 0.16647294253E+01
 0.15971585057E+01 0.15481941688E+01 0.15164341904E+01 0.15008328709E+01 0.15008333158E+01
 0.15164337459E+01 0.15973813613E+01 0.16617956999E+01 0.17477756036E+01 0.18572374261E+01
 0.19921635810E+01 0.21545883335E+01 0.23465643836E+01 0.25701811437E+01 0.28274483536E+01
 0.31201350403E+01 0.34493083809E+01 0.38150425729E+01 0.42155869234E+01 0.46473245000E+01
 0.51041585143E+01 0.55775656940E+01 0.60572636557E+01 0.65313206065E+01 0.69868212902E+01
 0.74110043138E+01 0.77919313477E+01 0.81188485554E+01 0.83825801084E+01 0.85760164898E+01
 0.86940684855E+01 0.87337335164E+01 0.86940266862E+01 0.85759517597E+01 0.83825627170E+01
 0.81188933144E+01 0.77920153621E+01 0.74110509902E+01 0.69867736971E+01 0.65312671621E+01
 0.60572933090E+01 0.55775982024E+01 0.51041241172E+01 0.46473255116E+01 0.42156025241E+01
 0.38150289415E+01 0.34493235926E+01 0.31201327170E+01 0.28274546121E+01 0.25701828008E+01
 0.23465651392E+01 0.21545875643E+01 0.19921628754E+01 0.18572366289E+01 0.17477758739E+01
 0.16617958621E+01 0.15973812701E+01 0.15528110454E+01 0.15266809350E+01 0.15180795287E+01
 0.15266809352E+01 0.15528109387E+01 0.16576489893E+01 0.17400937170E+01 0.18473424013E+01
 0.19816179259E+01 0.21452318689E+01 0.23405912074E+01 0.25701811437E+01 0.28365279899E+01
 0.31419959574E+01 0.34883887534E+01 0.38765202776E+01 0.43053531883E+01 0.47718190171E+01
 0.52699370413E+01 0.57910468325E+01 0.63242649333E+01 0.68563754746E+01 0.73732179346E+01
 0.78607584616E+01 0.83054799708E+01 0.86949511812E+01 0.90187006261E+01 0.92685312344E+01
 0.94383587894E+01 0.95242618925E+01 0.95242854363E+01 0.94383975945E+01 0.92685315563E+01
 0.90186009875E+01 0.86948178889E+01 0.83054545219E+01 0.78608551926E+01 0.73732780385E+01
 0.68563159338E+01 0.63242280933E+01 0.57910985377E+01 0.52699206193E+01 0.47718076882E+01
 0.43053763057E+01 0.38765061145E+01 0.34883976210E+01 0.31419935045E+01 0.28365284567E+01
 0.25701830848E+01 0.23405896465E+01 0.21452339960E+01 0.19816170069E+01 0.18473438760E+01
 0.17400916886E+01 0.16576509856E+01 0.15979617062E+01 0.15592724907E+01 0.15402731504E+01
 0.15402749906E+01 0.15592705412E+01 0.15979635680E+01 0.17298336296E+01 0.18329935440E+01
 0.19644696102E+01 0.21268622618E+01 0.23228715056E+01 0.25554068891E+01 0.28274483536E+01
 0.31419959574E+01 0.35015580676E+01 0.39077966692E+01 0.43604768046E+01 0.48572777188E+01
 0.53925372478E+01 0.59577475084E+01 0.65414649548E+01 0.71294399106E+01 0.77064779609E+01
 0.82571275557E+01 0.87659804278E+01 0.92191160831E+01 0.96049851585E+01 0.99144116679E+01
 0.10140270018E+02 0.10277699567E+02 0.10323813883E+02 0.10277704210E+02 0.10140332205E+02
 0.99145465842E+01 0.96051532694E+01 0.92190684066E+01 0.87658127470E+01 0.82571027418E+01
 0.77065923625E+01 0.71294479354E+01 0.65413877817E+01 0.59577875969E+01 0.53925448697E+01
 0.48572526753E+01 0.43605074178E+01 0.39077838944E+01 0.35015713869E+01 0.31419949795E+01
 0.28274529073E+01 0.25554061049E+01 0.23228710459E+01 0.21268606310E+01 0.19644703921E+01
 0.18329931826E+01 0.17298338158E+01 0.16526165163E+01 0.15991969888E+01 0.15678958836E+01
 0.15575837327E+01 0.15678958887E+01 0.15991967850E+01 0.16526166304E+01 0.18147417880E+01
 0.19413490248E+01 0.21001071643E+01 0.22940249222E+01 0.25263539410E+01 0.28005385835E+01
 0.31201350403E+01 0.34883887534E+01 0.39077966692E+01 0.43790746811E+01 0.49007553500E+01
 0.54678181773E+01 0.60720928110E+01 0.67018451048E+01 0.73420514897E+01 0.79766539919E+01
 0.85884960356E+01 0.91604055812E+01 0.96772682558E+01 0.10126534821E+02 0.10497677631E+02
 0.10782380536E+02 0.10974897620E+02 0.11071852039E+02 0.11071822908E+02 0.10974805223E+02
 0.10782249139E+02 0.10497593648E+02 0.10126680267E+02 0.96774908323E+01 0.91603238952E+01
 0.85883481533E+01 0.79767147818E+01 0.73421291678E+01 0.67017559830E+01 0.60721183572E+01
 0.54678411993E+01 0.49007251004E+01 0.43791007663E+01 0.39077827483E+01 0.34883973694E+01
 0.31201331581E+01 0.28005418357E+01 0.25263539440E+01 0.22940253702E+01 0.21001070877E+01
 0.19413484606E+01 0.18147422361E+01 0.17174996185E+01 0.16471223332E+01 0.16015019409E+01
 0.15791020847E+01 0.15791014435E+01 0.16015024214E+01 0.16471216569E+01 0.17175001595E+01
 0.19130622562E+01 0.20658961655E+01 0.22550175319E+01 0.24840162897E+01 0.27566943488E+01
 0.30771618823E+01 0.34493083809E+01 0.38765202776E+01 0.43604768046E+01 0.49007553500E+01
 0.54931959641E+01 0.61302529792E+01 0.68001940852E+01 0.74875965006E+01 0.81755817381E+01
 0.88453409663E+01 0.94781696042E+01 0.10057924522E+02 0.10570552239E+02 0.11003592540E+02
 0.11347199058E+02 0.11595142263E+02 0.11744422603E+02 0.11794258564E+02 0.11744466026E+02
 0.11595152735E+02 0.11347123704E+02 0.11003360311E+02 0.10570397997E+02 0.10058154214E+02
 0.94782937954E+01 0.88451641575E+01 0.81755705220E+01 0.74877078298E+01 0.68001159098E+01
 0.61302602941E+01 0.54932311937E+01 0.49007245117E+01 0.43605086831E+01 0.38765064536E+01
 0.34493227916E+01 0.30771557980E+01 0.27566995368E+01 0.24840107645E+01 0.22550207705E+01
 0.20658938790E+01 0.19130638719E+01 0.17933089195E+01 0.17036930419E+01 0.16417171545E+01
 0.16053786139E+01 0.15934211644E+01 0.16053781897E+01 0.16417177107E+01 0.17036919782E+01
 0.17933103218E+01 0.20253456175E+01 0.22071319347E+01 0.24297634731E+01 0.26973745435E+01
 0.30145059185E+01 0.33856653693E+01 0.38150425729E+01 0.43053531883E+01 0.48572777188E+01
 0.54678181773E+01 0.61302529792E+01 0.68333368956E+01 0.75615180562E+01 0.82973380707E+01
 0.90205223755E+01 0.97110909259E+01 0.10351653356E+02 0.10926080226E+02 0.11419209104E+02
 0.11819327483E+02 0.12119929856E+02 0.12319319235E+02 0.12418458721E+02 0.12418486930E+02
 0.12319412137E+02 0.12120095027E+02 0.11819470638E+02 0.11419153556E+02 0.10925758102E+02
 0.10351703304E+02 0.97113365821E+01 0.90203852061E+01 0.82972646953E+01 0.75616457954E+01
 0.68332635382E+01 0.61302582138E+01 0.54678443001E+01 0.48572488858E+01 0.43053783881E+01
 0.38150270593E+01 0.33856796180E+01 0.30144979542E+01 0.26973818585E+01 0.24297569156E+01
 0.22071371018E+01 0.20253409953E+01 0.18805964129E+01 0.17695077521E+01 0.16891270858E+01
 0.16370121637E+01 0.16114213353E+01 0.16114177949E+01 0.16370156128E+01 0.16891233267E+01
 0.17695115803E+01 0.18805924019E+01 0.21518563056E+01 0.23653089034E+01 0.26244758576E+01
 0.29342212714E+01 0.32995786170E+01 0.37254514488E+01 0.42155869234E+01 0.47718190171E+01
 0.53925372478E+01 0.60720928110E+01 0.68001940852E+01 0.75615180562E+01 0.83383228887E+01
 0.91092961169E+01 0.98532244352E+01 0.10551318565E+02 0.11184910439E+02 0.11735496718E+02
 0.12188911771E+02 0.12538300743E+02 0.12783556500E+02 0.12928173822E+02 0.12975839028E+02
 0.12928130230E+02 0.12783543613E+02 0.12538391810E+02 0.12189134824E+02 0.11735647644E+02
 0.11184634699E+02 0.10551194400E+02 0.98535177273E+01 0.91091959478E+01 0.83382311776E+01
 0.75616416267E+01 0.68001219260E+01 0.60721110404E+01 0.53925523921E+01 0.47718021455E+01
 0.42156074171E+01 0.37254372382E+01 0.32995892944E+01 0.29342106470E+01 0.26244826313E+01
 0.23653038116E+01 0.21518604853E+01 0.19797297227E+01 0.18450076260E+01 0.17442404856E+01
 0.16745484541E+01 0.16336823762E+01 0.16202273050E+01 0.16336829286E+01 0.16745471224E+01
 0.17442423673E+01 0.18450050692E+01 0.19797332259E+01 0.22925791449E+01 0.25402232212E+01
 0.28388305269E+01 0.31938345212E+01 0.36107321843E+01 0.40942347847E+01 0.46473245000E+01
 0.52699370413E+01 0.59577475084E+01 0.67018451048E+01 0.74875965006E+01 0.82973380707E+01
 0.91092961169E+01 0.99010036245E+01 0.10652281924E+02 0.11341911508E+02 0.11947628517E+02
 0.12452085051E+02 0.12847389651E+02 0.13134602966E+02 0.13319860500E+02 0.13410231877E+02
 0.13410207763E+02 0.13319761823E+02 0.13134451041E+02 0.12847348139E+02 0.12452243821E+02
 0.11947905906E+02 0.11341715301E+02 0.10652072292E+02 0.99012950762E+01 0.91092008630E+01
 0.82972653940E+01 0.74877043792E+01 0.67017616734E+01 0.59577816091E+01 0.52699246440E+01
 0.46473218966E+01 0.40942404837E+01 0.36107253437E+01 0.31938403344E+01 0.28388242452E+01
 0.25402285388E+01 0.22925746712E+01 0.20908155623E+01 0.19304099692E+01 0.18074099272E+01
 0.17184184618E+01 0.16607258558E+01 0.16323803872E+01 0.16323839624E+01 0.16607221702E+01
 0.17184221379E+01 0.18074061227E+01 0.19304139715E+01 0.20908115061E+01 0.24470554757E+01
 0.27311842716E+01 0.30717325527E+01 0.34745804502E+01 0.39453237664E+01 0.44879927354E+01
 0.51041585143E+01 0.57910468325E+01 0.65414649548E+01 0.73420514897E+01 0.81755817381E+01
 0.90205223755E+01 0.98532244352E+01 0.10652281924E+02 0.11394486967E+02 0.12053856644E+02
 0.12608990647E+02 0.13049707709E+02 0.13377048501E+02 0.13599306706E+02 0.13727021489E+02
 0.13768581994E+02 0.13726997931E+02 0.13599222382E+02 0.13376848340E+02 0.13049531602E+02
 0.12609054399E+02 0.12054174242E+02 0.11394341718E+02 0.10652070523E+02 0.98535153334E+01
 0.90203810387E+01 0.81755783876E+01 0.73421180511E+01 0.65413986041E+01 0.57910902101E+01
 0.51041319168E+01 0.44880031941E+01 0.39453148832E+01 0.34745813758E+01 0.30717311651E+01
 0.27311857230E+01 0.24470550908E+01 0.22135939000E+01 0.20256805844E+01 0.18787366146E+01
 0.17689054064E+01 0.16929260422E+01 0.16483881527E+01 0.16337061209E+01 0.16483881079E+01
 0.16929260747E+01 0.17689053533E+01 0.18787367080E+01 0.20256806773E+01 0.22135938255E+01
 0.26143196330E+01 0.29368492062E+01 0.33211991725E+01 0.37735980165E+01 0.42990867077E+01
 0.49007190932E+01 0.55775656940E+01 0.63242649333E+01 0.71294399106E+01 0.79766539919E+01
 0.88453409663E+01 0.97110909259E+01 0.10551318565E+02 0.11341911508E+02 0.12053856644E+02
 0.12661070397E+02 0.13149397353E+02 0.13518265061E+02 0.13776795679E+02 0.13938425905E+02
 0.14015565820E+02 0.14015573312E+02 0.13938472985E+02 0.13776813446E+02 0.13518104435E+02
 0.13149191350E+02 0.12661061523E+02 0.12054189456E+02 0.11341713490E+02 0.10551196446E+02
 0.97113435416E+01 0.88451539492E+01 0.79767285739E+01 0.71294359615E+01 0.63242360600E+01
 0.55775917099E+01 0.49006949000E+01 0.42991028980E+01 0.37735859709E+01 0.33212088783E+01
 0.29368418729E+01 0.26143263505E+01 0.23474487324E+01 0.21304136896E+01 0.19580879170E+01
 0.18260333955E+01 0.17305195992E+01 0.16685953081E+01 0.16381685369E+01 0.16381730638E+01
 0.16685907429E+01 0.17305242852E+01 0.18260286025E+01 0.19580930097E+01 0.21304082012E+01
 0.23474547924E+01 0.27928729564E+01 0.31550404354E+01 0.35842791147E+01 0.40865986039E+01
 0.46662160573E+01 0.53242833398E+01 0.60572636557E+01 0.68563754746E+01 0.77064779609E+01
 0.85884960356E+01 0.94781696042E+01 0.10351653356E+02 0.11184910439E+02 0.11947628517E+02
 0.12608990647E+02 0.13149397353E+02 0.13564518490E+02 0.13862512961E+02 0.14058157998E+02
 0.14167500004E+02 0.14202447798E+02 0.14167576641E+02 0.14058247026E+02 0.13862565556E+02
 0.13564411175E+02 0.13149177836E+02 0.12609015123E+02 0.11947932571E+02 0.11184627356E+02
 0.10351690002E+02 0.94783134560E+01 0.85883260834E+01 0.77066090848E+01 0.68563056386E+01
 0.60573012334E+01 0.53242649428E+01 0.46662257436E+01 0.40865913044E+01 0.35842855840E+01
 0.31550362514E+01 0.27928767042E+01 0.24912641893E+01 0.22438745758E+01 0.20449875901E+01
 0.18896066017E+01 0.17735043626E+01 0.16932083857E+01 0.16461292474E+01 0.16306158473E+01
 0.16461297586E+01 0.16932074378E+01 0.17735058836E+01 0.18896046283E+01 0.20449901244E+01
 0.22438715523E+01 0.24912676727E+01 0.29805210774E+01 0.33827736486E+01 0.38568501366E+01
 0.44079948314E+01 0.50392047081E+01 0.57490498796E+01 0.65313206065E+01 0.73732179346E+01
 0.82571275557E+01 0.91604055812E+01 0.10057924522E+02 0.10926080226E+02 0.11735496718E+02
 0.12452085051E+02 0.13049707709E+02 0.13518265061E+02 0.13862512961E+02 0.14096753215E+02
 0.14239108756E+02 0.14305609337E+02 0.14305662971E+02 0.14239198066E+02 0.14096918315E+02
 0.13862580262E+02 0.13518157379E+02 0.13049489075E+02 0.12452215555E+02 0.11735682598E+02
 0.10925762644E+02 0.10058132019E+02 0.91603503843E+01 0.82570846661E+01 0.73732881122E+01
 0.65312583096E+01 0.57491009033E+01 0.50391699177E+01 0.44080251799E+01 0.38568267612E+01
 0.33827935498E+01 0.29805025006E+01 0.26434533577E+01 0.23649021010E+01 0.21386544228E+01
 0.19591392373E+01 0.18216652778E+01 0.17222364895E+01 0.16577956902E+01 0.16261174068E+01
 0.16261314267E+01 0.16577816609E+01 0.17222507700E+01 0.18216508402E+01 0.19591540604E+01
 0.21386390624E+01 0.23649179386E+01 0.26434364529E+01 0.31743476073E+01 0.36161995662E+01
 0.41336621198E+01 0.47309968409E+01 0.54092044701E+01 0.61643196145E+01 0.69868212902E+01
 0.78607584616E+01 0.87659804278E+01 0.96772682558E+01 0.10570552239E+02 0.11419209104E+02
 0.12188911771E+02 0.12847389651E+02 0.13377048501E+02 0.13776795679E+02 0.14058157998E+02
 0.14239108756E+02 0.14338387861E+02 0.14369735894E+02 0.14338415745E+02 0.14239221329E+02
 0.14058331331E+02 0.13776845842E+02 0.13376919835E+02 0.12847209754E+02 0.12189185025E+02
 0.11419136216E+02 0.10570408872E+02 0.96774814543E+01 0.87658101137E+01 0.78608620898E+01
 0.69867704051E+01 0.61643437780E+01 0.54091917117E+01 0.47310030300E+01 0.41336563506E+01
 0.36162037350E+01 0.31743431146E+01 0.28018575549E+01 0.24919439535E+01 0.22379417105E+01
 0.20338885455E+01 0.18745329367E+01 0.17555090957E+01 0.16731922646E+01 0.16249433090E+01
 0.16090348107E+01 0.16249437863E+01 0.16731914481E+01 0.17555104626E+01 0.18745311901E+01
 0.20338907053E+01 0.22379391200E+01 0.24919470695E+01 0.28018536918E+01 0.33707782471E+01
 0.38505749889E+01 0.44085596836E+01 0.50477199252E+01 0.57665823719E+01 0.65586822651E+01
 0.74110043138E+01 0.83054799708E+01 0.92191160831E+01 0.10126534821E+02 0.11003592540E+02
 0.11819327483E+02 0.12538300743E+02 0.13134602966E+02 0.13599306706E+02 0.13938425905E+02
 0.14167500004E+02 0.14305609337E+02 0.14369735894E+02 0.14369773763E+02 0.14305692594E+02
 0.14167605996E+02 0.13938576411E+02 0.13599307252E+02 0.13134399522E+02 0.12538313465E+02
 0.11819559103E+02 0.11003326713E+02 0.10126676329E+02 0.92190974876E+01 0.83054257506E+01
 0.74110699454E+01 0.65586224705E+01 0.57666299008E+01 0.50476824272E+01 0.44085896897E+01
 0.38505476405E+01 0.33708021932E+01 0.29638077173E+01 0.26229754836E+01 0.23413991014E+01
 0.21127891285E+01 0.19314449856E+01 0.17926139566E+01 0.16922146003E+01 0.16271603804E+01
 0.15951776191E+01 0.15951948692E+01 0.16271431140E+01 0.16922321468E+01 0.17925962226E+01
 0.19314631345E+01 0.21127703849E+01 0.23414183074E+01 0.26229552136E+01 0.29638293542E+01
 0.35656341079E+01 0.40803991680E+01 0.46746781809E+01 0.53496350284E+01 0.61014072646E+01
 0.69207580914E+01 0.77919313477E+01 0.86949511812E+01 0.96049851585E+01 0.10497677631E+02
 0.11347199058E+02 0.12119929856E+02 0.12783556500E+02 0.13319860500E+02 0.13727021489E+02
 0.14015565820E+02 0.14202447798E+02 0.14305662971E+02 0.14338415745E+02 0.14305692594E+02
 0.14202530110E+02 0.14015736993E+02 0.13727095890E+02 0.13319769424E+02 0.12783385418E+02
 0.12120165265E+02 0.11347118774E+02 0.10497586943E+02 0.96051500850E+01 0.86948091047E+01
 0.77920322362E+01 0.69206936753E+01 0.61014464708E+01 0.53496060978E+01 0.46746985985E+01
 0.40803836022E+01 0.35656476655E+01 0.31260977533E+01 0.27555573448E+01 0.24472218861E+01
 0.21945144876E+01 0.19914894899E+01 0.18329627132E+01 0.17145635694E+01 0.16327031364E+01
 0.15847201811E+01 0.15689073950E+01 0.15847211986E+01 0.16327011860E+01 0.17145666286E+01
 0.18329586446E+01 0.19914946682E+01 0.21945080567E+01 0.24472294647E+01 0.27555479553E+01
 0.31261091106E+01 0.37541766590E+01 0.42997109873E+01 0.49246917928E+01 0.56280814559E+01
 0.64038585540E+01 0.72399707066E+01 0.81188485554E+01 0.90187006261E+01 0.99144116679E+01
 0.10782380536E+02 0.11595142263E+02 0.12319319235E+02 0.12928173822E+02 0.13410231877E+02
 0.13768581994E+02 0.14015573312E+02 0.14167576641E+02 0.14239198066E+02 0.14239221329E+02
 0.14167605996E+02 0.14015736993E+02 0.13768650876E+02 0.13410231402E+02 0.12927975889E+02
 0.12319426372E+02 0.11595243053E+02 0.10782173147E+02 0.99145811156E+01 0.90186086229E+01
 0.81188786038E+01 0.72399760069E+01 0.64038456384E+01 0.56281013458E+01 0.49246751023E+01
 0.42997275098E+01 0.37541605429E+01 0.32850312424E+01 0.28868850294E+01 0.25532577271E+01
 0.22774980030E+01 0.20535070173E+01 0.18758012417E+01 0.17397455646E+01 0.16413758766E+01
 0.15776428820E+01 0.15463208130E+01 0.15463343309E+01 0.15776293744E+01 0.16413894623E+01
 0.17397319786E+01 0.18758149362E+01 0.20534932051E+01 0.22775118927E+01 0.25532436604E+01
 0.28868992325E+01 0.32850164943E+01 0.39312965936E+01 0.45023661689E+01 0.51511977776E+01
 0.58747759269E+01 0.66647947468E+01 0.75070754080E+01 0.83825801084E+01 0.92685312344E+01
 0.10140270018E+02 0.10974897620E+02 0.11744422603E+02 0.12418458721E+02 0.12975839028E+02
 0.13410207763E+02 0.13726997931E+02 0.13938472985E+02 0.14058247026E+02 0.14096918315E+02
 0.14058331331E+02 0.13938576411E+02 0.13727095890E+02 0.13410231402E+02 0.12975673713E+02
 0.12418443035E+02 0.11744630253E+02 0.10974679720E+02 0.10140389765E+02 0.92685055705E+01
 0.83825567788E+01 0.75071083294E+01 0.66647628779E+01 0.58747977356E+01 0.51511793456E+01
 0.45023784172E+01 0.39312863393E+01 0.34365836800E+01 0.30138169765E+01 0.26570930941E+01
 0.23599123555E+01 0.21161550410E+01 0.19201709671E+01 0.17671314835E+01 0.16528026963E+01
 0.15738045487E+01 0.15274809807E+01 0.15122435623E+01 0.15274814996E+01 0.15738035003E+01
 0.16528043159E+01 0.17671293048E+01 0.19201738250E+01 0.21161514571E+01 0.23599167285E+01
 0.26570877454E+01 0.30138235959E+01 0.34365752086E+01 0.40919150231E+01 0.46822206382E+01
 0.53472787290E+01 0.60820475459E+01 0.68763493222E+01 0.77142874490E+01 0.85760164898E+01
 0.94383587894E+01 0.10277699567E+02 0.11071852039E+02 0.11794258564E+02 0.12418486930E+02
 0.12928130230E+02 0.13319761823E+02 0.13599222382E+02 0.13776813446E+02 0.13862565556E+02
 0.13862580262E+02 0.13776845842E+02 0.13599307252E+02 0.13319769424E+02 0.12927975889E+02
 0.12418443035E+02 0.11794461039E+02 0.11071676657E+02 0.10277758424E+02 0.94383871567E+01
 0.85759615180E+01 0.77143410909E+01 0.68763098291E+01 0.60820784017E+01 0.53472562861E+01
 0.46822394771E+01 0.40919000480E+01 0.35765569395E+01 0.31330096342E+01 0.27561013039E+01
 0.24397409744E+01 0.21779088909E+01 0.19649585864E+01 0.17959381304E+01 0.16664714196E+01
 0.15729139658E+01 0.15122833165E+01 0.14825253560E+01 0.14825167778E+01 0.15122919208E+01
 0.15729052325E+01 0.16664803149E+01 0.17959290424E+01 0.19649680258E+01 0.21778990640E+01
 0.24397512824E+01 0.27560902597E+01 0.31330213827E+01 0.35765440100E+01 0.42310798529E+01
 0.48336679943E+01 0.55067163929E+01 0.62434605509E+01 0.70321233674E+01 0.78557409945E+01
 0.86940684855E+01 0.95242618925E+01 0.10323813883E+02 0.11071822908E+02 0.11744466026E+02
 0.12319412137E+02 0.12783543613E+02 0.13134451041E+02 0.13376848340E+02 0.13518104435E+02
 0.13564411175E+02 0.13518157379E+02 0.13376919835E+02 0.13134399522E+02 0.12783385418E+02
 0.12319426372E+02 0.11744630253E+02 0.11071676657E+02 0.10323849957E+02 0.95242996135E+01
 0.86940097800E+01 0.78557899122E+01 0.70320881384E+01 0.62434841321E+01 0.55066996241E+01
 0.48336803555E+01 0.42310694923E+01 0.37008100844E+01 0.32410538256E+01 0.28475614171E+01
 0.25148332424E+01 0.22371201202E+01 0.20089161718E+01 0.18252604210E+01 0.16817434070E+01
 0.15745516143E+01 0.15004828869E+01 0.14570864135E+01 0.14427996307E+01 0.14570859114E+01
 0.15004838298E+01 0.15745501319E+01 0.16817454240E+01 0.18252578890E+01 0.20089193739E+01
 0.22371162501E+01 0.25148378455E+01 0.28475557635E+01 0.32410603693E+01 0.37008019109E+01
 0.43443662455E+01 0.49518155671E+01 0.56244139135E+01 0.63539467252E+01 0.71274642041E+01
 0.79274660500E+01 0.87337335164E+01 0.95242854363E+01 0.10277704210E+02 0.10974805223E+02
 0.11595152735E+02 0.12120095027E+02 0.12538391810E+02 0.12847348139E+02 0.13049531602E+02
 0.13149191350E+02 0.13149177836E+02 0.13049489075E+02 0.12847209754E+02 0.12538313465E+02
 0.12120165265E+02 0.11595243053E+02 0.10974679720E+02 0.10277758424E+02 0.95242996135E+01
 0.87336961014E+01 0.79275011238E+01 0.71274409580E+01 0.63539627938E+01 0.56244029290E+01
 0.49518228613E+01 0.43443614408E+01 0.38054683229E+01 0.33346724713E+01 0.29287723749E+01
 0.25830098153E+01 0.22920701253E+01 0.20507130657E+01 0.18541007567E+01 0.16978807428E+01
 0.15781977408E+01 0.14917116628E+01 0.14357004142E+01 0.14082076322E+01 0.14082081748E+01
 0.14356998070E+01 0.14917122762E+01 0.15781970199E+01 0.16978816048E+01 0.18540997898E+01
 0.20507142886E+01 0.22920686327E+01 0.25830116004E+01 0.29287700182E+01 0.33346754243E+01
 0.38054646549E+01 0.44280812953E+01 0.50328044493E+01 0.56965829380E+01 0.64100618637E+01
 0.71595562890E+01 0.79274792419E+01 0.86940266862E+01 0.94383975945E+01 0.10140332205E+02
 0.10782249139E+02 0.11347123704E+02 0.11819470638E+02 0.12189134824E+02 0.12452243821E+02
 0.12609054399E+02 0.12661061523E+02 0.12609015123E+02 0.12452215555E+02 0.12189185025E+02
 0.11819559103E+02 0.11347118774E+02 0.10782173147E+02 0.10140389765E+02 0.94383871567E+01
 0.86940097800E+01 0.79275011238E+01 0.71595371184E+01 0.64100745399E+01 0.56965734439E+01
 0.50328119142E+01 0.44280751056E+01 0.38871564010E+01 0.34108957145E+01 0.29972043877E+01
 0.26421675506E+01 0.23410505788E+01 0.20889956256E+01 0.18814073599E+01 0.17140901054E+01
 0.15832532467E+01 0.14855280397E+01 0.14180248218E+01 0.13784946107E+01 0.13654825644E+01
 0.13784948296E+01 0.14180243353E+01 0.14855287420E+01 0.15832522875E+01 0.17140913610E+01
 0.18814058506E+01 0.20889974814E+01 0.23410483457E+01 0.26421701532E+01 0.29972012210E+01
 0.34108994676E+01 0.38871516829E+01 0.44794448284E+01 0.50739823366E+01 0.57208934028E+01
 0.64100719088E+01 0.71274419504E+01 0.78557897653E+01 0.85759517597E+01 0.92685315563E+01
 0.99145465842E+01 0.10497593648E+02 0.11003360311E+02 0.11419153556E+02 0.11735647644E+02
 0.11947905906E+02 0.12054174242E+02 0.12054189456E+02 0.11947932571E+02 0.11735682598E+02
 0.11419136216E+02 0.11003326713E+02 0.10497586943E+02 0.99145811156E+01 0.92685055705E+01
 0.85759615180E+01 0.78557899122E+01 0.71274409580E+01 0.64100745399E+01 0.57208926528E+01
 0.50739824454E+01 0.44794453091E+01 0.39431783173E+01 0.34672357684E+01 0.30506385329E+01
 0.26903955603E+01 0.23824537301E+01 0.21224507045E+01 0.19061323843E+01 0.17295553186E+01
 0.15890900465E+01 0.14814408537E+01 0.14036637386E+01 0.13533179533E+01 0.13286141584E+01
 0.13286160641E+01 0.13533160462E+01 0.14036656201E+01 0.14814389888E+01 0.15890918841E+01
 0.17295535359E+01 0.19061341262E+01 0.21224490379E+01 0.23824552952E+01 0.26903940904E+01
 0.30506398168E+01 0.34672346929E+01 0.39431791776E+01 0.44967601105E+01 0.50739836735E+01
 0.56965724936E+01 0.63539647973E+01 0.70320890919E+01 0.77143396789E+01 0.83825627170E+01
 0.90186009875E+01 0.96051532694E+01 0.10126680267E+02 0.10570397997E+02 0.10925758102E+02
 0.11184634699E+02 0.11341715301E+02 0.11394341718E+02 0.11341713490E+02 0.11184627356E+02
 0.10925762644E+02 0.10570408872E+02 0.10126676329E+02 0.96051500850E+01 0.90186086229E+01
 0.83825567788E+01 0.77143410909E+01 0.70320881384E+01 0.63539627938E+01 0.56965734439E+01
 0.50739824454E+01 0.44967603620E+01 0.39716681603E+01 0.35018149274E+01 0.30873002883E+01
 0.27260784255E+01 0.24148664439E+01 0.21498750834E+01 0.19272882601E+01 0.17434841626E+01
 0.15950868265E+01 0.14789553650E+01 0.13922047214E+01 0.13323030930E+01 0.12972372391E+01
 0.12857000270E+01 0.12972372631E+01 0.13323030448E+01 0.13922047945E+01 0.14789552661E+01
 0.15950869523E+01 0.17434840080E+01 0.19272884456E+01 0.21498748642E+01 0.24148667003E+01
 0.27260781280E+01 0.30873006162E+01 0.35018146117E+01 0.39716683449E+01 0.44794448507E+01
 0.50328107740E+01 0.56244048958E+01 0.62434777048E+01 0.68763200584E+01 0.75070892249E+01